Created on Wed May 07 11:04:27 2025 

         580 atoms
         480 bonds
         840 angles

           8 atom types
           2 bond types
           2 angle types
           0.000000  30.000000 xlo xhi
           0.000000  30.000000 ylo yhi
           0.000000  30.000000 zlo zhi
           0.000000   0.000000   0.000000 xy xz yz

Masses

    1    54.938045000 # Mn6+2
    2    55.845000000 # Fe6+2
    3    58.933195000 # Co6+3
    4    58.693400000 # Ni4+2
    5    65.380000000 # Zn3+2
    6    14.006700000 # N_1
    7    12.010700000 # C_1
    8    58.933195000 # Co6+3

Bond Coeffs

    1      647.145897        1.356458  # N_1 C_1
    2      211.646270        1.938950  # C_1 Co6+3

Angle Coeffs

    1       57.360388               1               1 # N_1 C_1 Co6+3
    2       88.315819               1               4 # C_1 Co6+3 C_1

Pair Coeffs

    1        0.013000        2.637951 # Mn6+2 Mn6+2
    2        0.013000        2.594297 # Fe6+2 Fe6+2
    3        0.014000        2.558661 # Co6+3 Co6+3
    4        0.015000        2.524807 # Ni4+2 Ni4+2
    5        0.124000        2.461553 # Zn3+2 Zn3+2
    6        0.069000        3.260689 # N_1 N_1
    7        0.105000        3.430851 # C_1 C_1
    8        0.014000        2.558661 # Co6+3 Co6+3

Atoms

       1        1        1     2.00000   23.13000   19.88000    2.24000
       2        2        1     2.00000   29.25000   25.05000   29.77000
       3        3        1     2.00000   18.33000   22.63000   17.08000
       4        4        1     2.00000   23.60000   19.64000   26.26000
       5        5        1     2.00000   29.18000    8.49000    6.54000
       6        6        2     2.00000   17.30000    1.82000   16.79000
       7        7        2     2.00000   12.43000    7.81000   14.38000
       8        8        2     2.00000   12.93000   26.65000   14.38000
       9        9        2     2.00000    9.77000   21.96000   27.38000
      10       10        2     2.00000   15.45000   25.70000   23.62000
      11       11        2     2.00000   14.44000   22.51000    6.60000
      12       12        2     2.00000    0.10000   17.39000   24.07000
      13       13        2     2.00000   19.01000    6.66000   16.42000
      14       14        2     2.00000   12.11000   24.95000    8.61000
      15       15        2     2.00000    1.39000   28.97000    8.66000
      16       16        2     2.00000   25.50000   23.17000   10.38000
      17       17        2     2.00000   10.83000    8.76000   25.69000
      18       18        2     2.00000   17.94000   10.54000   23.71000
      19       19        2     2.00000   26.83000   13.01000   22.90000
      20       20        2     2.00000   27.90000   20.75000    1.79000
      21       21        2     2.00000   11.22000   13.54000    8.02000
      22       22        2     2.00000    2.40000   21.02000   20.19000
      23       23        2     2.00000    7.63000   28.12000    4.38000
      24       24        3     2.00000   15.45000   22.09000   13.90000
      25       25        3     2.00000    6.36000   25.12000    0.85000
      26       26        3     2.00000    2.10000    4.05000    4.54000
      27       27        3     2.00000   22.17000    1.37000    5.70000
      28       28        3     2.00000    6.39000   22.16000   12.74000
      29       29        3     2.00000   28.34000   22.61000    4.99000
      30       30        3     2.00000   21.54000   21.57000   27.60000
      31       31        3     2.00000    8.98000   26.79000   25.41000
      32       32        3     2.00000    3.95000   18.87000   20.22000
      33       33        3     2.00000   14.56000   12.77000   16.79000
      34       34        3     2.00000   25.92000    8.68000   17.68000
      35       35        3     2.00000   11.35000    2.85000   15.26000
      36       36        3     2.00000   20.74000   11.90000    8.51000
      37       37        3     2.00000   17.76000   24.19000   20.85000
      38       38        3     2.00000   12.64000   25.67000   11.69000
      39       39        3     2.00000   22.56000    0.81000   11.38000
      40       40        3     2.00000   20.80000   29.28000    8.93000
      41       41        3     2.00000   10.73000   17.51000    6.09000
      42       42        4     2.00000    2.97000   28.24000    8.43000
      43       43        4     2.00000   24.58000   10.74000   15.39000
      44       44        4     2.00000   29.11000   24.14000   27.42000
      45       45        4     2.00000    7.93000   17.78000   15.02000
      46       46        5     2.00000   14.63000   19.07000   22.50000
      47       47        5     2.00000   13.70000   12.51000   26.51000
      48       48        5     2.00000   26.93000    7.40000   20.97000
      49       49        5     2.00000   21.88000   19.68000   21.34000
      50       50        5     2.00000   18.79000   14.25000    9.68000
      51       51        5     2.00000   16.13000    5.18000   15.40000
      52       52        5     2.00000    8.30000   20.86000    4.30000
      53       53        5     2.00000   29.89000   25.97000    7.49000
      54       54        5     2.00000    8.37000   15.41000   13.61000
      55       55        5     2.00000   22.60000    8.82000   15.56000
      56       56        5     2.00000    7.98000   22.68000   14.74000
      57       57        5     2.00000    7.98000   22.11000   25.74000
      58       58        5     2.00000    6.53000   10.96000   29.18000
      59       59        5     2.00000   26.16000   18.40000   20.48000
      60       60        5     2.00000    8.65000   16.29000   22.86000
      61       61        6    -0.49000   10.26000   16.80000   12.90000
      62       61        6    -0.49000    7.36000   18.40000   10.03000
      63       61        6    -0.49000   13.52000   17.78000   10.15000
      64       61        6    -0.49000   10.70000   20.89000   11.39000
      65       61        6    -0.49000   10.18000   15.29000    8.79000
      66       61        6    -0.49000   10.63000   19.38000    7.28000
      67       61        7    -0.51000   10.33000   17.29000   11.83000
      68       61        7    -0.51000   10.60000   19.83000   10.90000
      69       61        7    -0.51000    8.53000   18.28000   10.05000
      70       61        7    -0.51000   12.36000   17.90000   10.13000
      71       61        7    -0.51000   10.28000   16.35000    9.28000
      72       61        7    -0.51000   10.56000   18.89000    8.34000
      73       61        8     3.00000   10.44000   18.09000   10.09000
      74       62        6    -0.49000    2.20000    2.02000    4.70000
      75       62        6    -0.49000    3.46000    4.37000    1.23000
      76       62        6    -0.49000    1.82000   -1.53000    2.16000
      77       62        6    -0.49000    5.59000    0.69000    2.27000
      78       62        6    -0.49000   -0.32000    2.15000    1.12000
      79       62        6    -0.49000    3.07000    0.82000   -1.31000
      80       62        7    -0.51000    2.37000    1.79000    3.56000
      81       62        7    -0.51000    4.47000    0.97000    2.05000
      82       62        7    -0.51000    3.15000    3.25000    1.41000
      83       62        7    -0.51000    2.13000   -0.41000    1.99000
      84       62        7    -0.51000    0.80000    1.87000    1.34000
      85       62        7    -0.51000    2.91000    1.05000   -0.17000
      86       62        8     3.00000    2.64000    1.42000    1.70000
      87       63        6    -0.49000    9.08000    3.88000    3.22000
      88       63        6    -0.49000    9.65000    0.59000    6.06000
      89       63        6    -0.49000    9.14000    6.74000    6.53000
      90       63        6    -0.49000   12.46000    3.94000    6.00000
      91       63        6    -0.49000    6.32000    3.38000    6.59000
      92       63        6    -0.49000    9.71000    3.45000    9.37000
      93       63        7    -0.51000    9.20000    3.80000    4.39000
      94       63        7    -0.51000   11.30000    3.84000    6.11000
      95       63        7    -0.51000    9.55000    1.75000    6.15000
      96       63        7    -0.51000    9.23000    5.57000    6.44000
      97       63        7    -0.51000    7.49000    3.49000    6.48000
      98       63        7    -0.51000    9.59000    3.53000    8.20000
      99       63        8     3.00000    9.39000    3.66000    6.30000
     100       64        6    -0.49000   27.89000    2.78000    8.76000
     101       64        6    -0.49000   28.23000    2.35000   13.10000
     102       64        6    -0.49000   25.24000    6.22000    9.30000
     103       64        6    -0.49000   29.18000    6.18000   11.20000
     104       64        6    -0.49000   24.28000    2.39000   11.21000
     105       64        6    -0.49000   25.58000    5.79000   13.65000
     106       64        7    -0.51000   27.45000    3.35000    9.68000
     107       64        7    -0.51000   28.25000    5.46000   11.20000
     108       64        7    -0.51000   27.66000    3.08000   12.38000
     109       64        7    -0.51000   25.80000    5.49000   10.02000
     110       64        7    -0.51000   25.21000    3.11000   11.21000
     111       64        7    -0.51000   26.01000    5.22000   12.72000
     112       64        8     3.00000   26.73000    4.29000   11.20000
     113       65        6    -0.49000   25.86000   27.61000   24.30000
     114       65        6    -0.49000   21.84000   27.09000   25.94000
     115       65        6    -0.49000   26.17000   31.49000   26.30000
     116       65        6    -0.49000   25.20000   27.91000   28.62000
     117       65        6    -0.49000   22.81000   30.68000   23.62000
     118       65        6    -0.49000   22.15000   30.97000   27.94000
     119       65        7    -0.51000   25.16000   28.25000   24.99000
     120       65        7    -0.51000   24.75000   28.43000   27.67000
     121       65        7    -0.51000   22.66000   27.92000   26.00000
     122       65        7    -0.51000   25.35000   30.66000   26.23000
     123       65        7    -0.51000   23.26000   30.15000   24.57000
     124       65        7    -0.51000   22.85000   30.34000   27.25000
     125       65        8     3.00000   24.01000   29.29000   26.12000
     126       66        6    -0.49000   15.89000   17.17000    0.39000
     127       66        6    -0.49000   13.19000   15.01000    3.07000
     128       66        6    -0.49000   17.12000   13.38000   -1.42000
     129       66        6    -0.49000   12.88000   14.45000   -1.26000
     130       66        6    -0.49000   17.43000   13.95000    2.92000
     131       66        6    -0.49000   14.42000   11.22000    1.27000
     132       66        7    -0.51000   15.61000   16.04000    0.56000
     133       66        7    -0.51000   13.74000   14.35000   -0.47000
     134       66        7    -0.51000   13.93000   14.70000    2.22000
     135       66        7    -0.51000   16.38000   13.69000   -0.56000
     136       66        7    -0.51000   16.57000   14.04000    2.13000
     137       66        7    -0.51000   14.70000   12.35000    1.10000
     138       66        8     3.00000   15.15000   14.20000    0.83000
     139       67        6    -0.49000   25.36000   27.51000   15.46000
     140       67        6    -0.49000   23.31000   23.64000   15.72000
     141       67        6    -0.49000   23.23000   28.87000   19.04000
     142       67        6    -0.49000   25.56000   25.17000   19.15000
     143       67        6    -0.49000   20.98000   27.35000   15.60000
     144       67        6    -0.49000   21.19000   25.01000   19.30000
     145       67        7    -0.51000   24.57000   27.03000   16.19000
     146       67        7    -0.51000   24.70000   25.58000   18.48000
     147       67        7    -0.51000   23.30000   24.63000   16.35000
     148       67        7    -0.51000   23.25000   27.88000   18.41000
     149       67        7    -0.51000   21.85000   26.93000   16.28000
     150       67        7    -0.51000   21.98000   25.48000   18.57000
     151       67        8     3.00000   23.27000   26.26000   17.38000
     152       68        6    -0.49000    7.75000   24.43000    3.28000
     153       68        6    -0.49000    9.72000   27.98000    1.66000
     154       68        6    -0.49000   11.62000   22.40000    3.57000
     155       68        6    -0.49000   11.04000   26.30000    5.48000
     156       68        6    -0.49000   10.30000   24.09000   -0.26000
     157       68        6    -0.49000   13.59000   25.96000    1.95000
     158       68        7    -0.51000    8.85000   24.72000    3.03000
     159       68        7    -0.51000   10.90000   25.88000    4.40000
     160       68        7    -0.51000   10.08000   26.93000    2.02000
     161       68        7    -0.51000   11.26000   23.46000    3.21000
     162       68        7    -0.51000   10.44000   24.51000    0.83000
     163       68        7    -0.51000   12.49000   25.67000    2.20000
     164       68        8     3.00000   10.67000   25.19000    2.61000
     165       69        6    -0.49000   17.39000   20.20000   11.03000
     166       69        6    -0.49000   21.20000   20.60000    8.91000
     167       69        6    -0.49000   18.84000   22.92000   14.14000
     168       69        6    -0.49000   18.89000   24.17000    9.94000
     169       69        6    -0.49000   21.15000   19.35000   13.10000
     170       69        6    -0.49000   22.65000   23.32000   12.02000
     171       69        7    -0.51000   18.39000   20.79000   11.22000
     172       69        7    -0.51000   19.32000   23.26000   10.54000
     173       69        7    -0.51000   20.76000   21.04000    9.90000
     174       69        7    -0.51000   19.29000   22.48000   13.15000
     175       69        7    -0.51000   20.73000   20.26000   12.51000
     176       69        7    -0.51000   21.66000   22.73000   11.83000
     177       69        8     3.00000   20.02000   21.76000   11.52000
     178       70        6    -0.49000   24.19000   15.32000   26.72000
     179       70        6    -0.49000   26.04000   14.57000   30.61000
     180       70        6    -0.49000   22.52000   11.27000   26.72000
     181       70        6    -0.49000   21.73000   13.97000   30.08000
     182       70        6    -0.49000   26.83000   11.87000   27.25000
     183       70        6    -0.49000   24.37000   10.52000   30.62000
     184       70        7    -0.51000   24.22000   14.41000   27.46000
     185       70        7    -0.51000   22.70000   13.57000   29.55000
     186       70        7    -0.51000   25.37000   13.94000   29.87000
     187       70        7    -0.51000   23.19000   11.90000   27.46000
     188       70        7    -0.51000   25.86000   12.27000   27.79000
     189       70        7    -0.51000   24.34000   11.43000   29.88000
     190       70        8     3.00000   24.28000   12.92000   28.67000
     191       71        6    -0.49000   17.52000    2.48000    2.09000
     192       71        6    -0.49000   18.68000    6.48000    3.45000
     193       71        6    -0.49000   13.55000    3.04000    3.83000
     194       71        6    -0.49000   15.11000    5.96000    0.96000
     195       71        6    -0.49000   17.12000    3.57000    6.32000
     196       71        6    -0.49000   14.71000    7.05000    5.19000
     197       71        7    -0.51000   16.99000    3.34000    2.68000
     198       71        7    -0.51000   15.49000    5.50000    1.98000
     199       71        7    -0.51000   17.71000    5.83000    3.52000
     200       71        7    -0.51000   14.52000    3.70000    3.76000
     201       71        7    -0.51000   16.74000    4.02000    5.30000
     202       71        7    -0.51000   15.24000    6.18000    4.60000
     203       71        8     3.00000   16.11000    4.76000    3.64000
     204       72        6    -0.49000    3.63000    5.87000    8.94000
     205       72        6    -0.49000    7.52000    3.87000    8.86000
     206       72        6    -0.49000    5.25000    8.93000   11.63000
     207       72        6    -0.49000    7.21000    8.11000    7.80000
     208       72        6    -0.49000    5.56000    4.69000   12.69000
     209       72        6    -0.49000    9.14000    6.93000   11.55000
     210       72        7    -0.51000    4.67000    6.07000    9.44000
     211       72        7    -0.51000    6.90000    7.46000    8.73000
     212       72        7    -0.51000    7.09000    4.83000    9.39000
     213       72        7    -0.51000    5.68000    7.97000   11.10000
     214       72        7    -0.51000    5.87000    5.34000   11.76000
     215       72        7    -0.51000    8.10000    6.73000   11.06000
     216       72        8     3.00000    6.38000    6.40000   10.25000
     217       73        6    -0.49000    1.73000   27.14000   17.20000
     218       73        6    -0.49000    3.95000   28.40000   20.76000
     219       73        6    -0.49000   -1.75000   29.42000   18.56000
     220       73        6    -0.49000    2.13000   31.40000   18.14000
     221       73        6    -0.49000    0.07000   26.42000   21.18000
     222       73        6    -0.49000    0.47000   30.68000   22.12000
     223       73        7    -0.51000    1.49000   27.81000   18.13000
     224       73        7    -0.51000    1.74000   30.46000   18.71000
     225       73        7    -0.51000    2.87000   28.59000   20.34000
     226       73        7    -0.51000   -0.67000   29.23000   18.98000
     227       73        7    -0.51000    0.46000   27.36000   20.60000
     228       73        7    -0.51000    0.71000   30.01000   21.19000
     229       73        8     3.00000    1.10000   28.91000   19.66000
     230       74        6    -0.49000   13.86000   16.61000   21.81000
     231       74        6    -0.49000    9.86000   15.98000   20.14000
     232       74        6    -0.49000   12.63000   20.54000   23.29000
     233       74        6    -0.49000   10.33000   16.97000   24.38000
     234       74        6    -0.49000   12.15000   19.55000   19.05000
     235       74        6    -0.49000    8.63000   19.91000   21.62000
     236       74        7    -0.51000   12.87000   17.23000   21.77000
     237       74        7    -0.51000   10.68000   17.46000   23.37000
     238       74        7    -0.51000   10.39000   16.85000   20.74000
     239       74        7    -0.51000   12.10000   19.68000   22.70000
     240       74        7    -0.51000   11.81000   19.06000   20.06000
     241       74        7    -0.51000    9.62000   19.29000   21.66000
     242       74        8     3.00000   11.24000   18.26000   21.72000
     243       75        6    -0.49000   30.15000    3.18000    6.97000
     244       75        6    -0.49000   26.59000    5.00000    5.18000
     245       75        6    -0.49000   30.53000    0.52000    3.50000
     246       75        6    -0.49000   30.35000    4.86000    2.93000
     247       75        6    -0.49000   26.77000    0.66000    5.75000
     248       75        6    -0.49000   26.97000    2.35000    1.72000
     249       75        7    -0.51000   29.55000    3.02000    5.97000
     250       75        7    -0.51000   29.67000    4.07000    3.47000
     251       75        7    -0.51000   27.34000    4.15000    4.86000
     252       75        7    -0.51000   29.78000    1.37000    3.82000
     253       75        7    -0.51000   27.45000    1.46000    5.22000
     254       75        7    -0.51000   27.57000    2.51000    2.71000
     255       75        8     3.00000   28.56000    2.76000    4.34000
     256       76        6    -0.49000    4.90000   14.98000   29.59000
     257       76        6    -0.49000    4.67000   15.17000   25.22000
     258       76        6    -0.49000    0.98000   13.03000   29.71000
     259       76        6    -0.49000    4.20000   11.33000   27.27000
     260       76        6    -0.49000    1.45000   16.87000   27.66000
     261       76        6    -0.49000    0.75000   13.22000   25.34000
     262       76        7    -0.51000    4.11000   14.65000   28.78000
     263       76        7    -0.51000    3.68000   12.38000   27.34000
     264       76        7    -0.51000    3.97000   14.77000   26.07000
     265       76        7    -0.51000    1.68000   13.43000   28.86000
     266       76        7    -0.51000    1.97000   15.82000   27.58000
     267       76        7    -0.51000    1.54000   13.55000   26.14000
     268       76        8     3.00000    2.82000   14.10000   27.46000
     269       77        6    -0.49000   24.18000   25.25000    7.67000
     270       77        6    -0.49000   25.14000   28.38000    4.76000
     271       77        6    -0.49000   27.59000   26.49000   10.12000
     272       77        6    -0.49000   24.55000   29.42000    8.97000
     273       77        6    -0.49000   28.19000   25.45000    5.91000
     274       77        6    -0.49000   28.55000   29.62000    7.21000
     275       77        7    -0.51000   25.01000   26.08000    7.58000
     276       77        7    -0.51000   25.24000   28.67000    8.39000
     277       77        7    -0.51000   25.61000   28.02000    5.77000
     278       77        7    -0.51000   27.12000   26.85000    9.11000
     279       77        7    -0.51000   27.50000   26.20000    6.49000
     280       77        7    -0.51000   27.72000   28.79000    7.30000
     281       77        8     3.00000   26.37000   27.43000    7.44000
     282       78        6    -0.49000    5.80000    9.89000    7.11000
     283       78        6    -0.49000    1.98000   10.25000    5.00000
     284       78        6    -0.49000    5.02000   13.67000    9.18000
     285       78        6    -0.49000    2.09000   10.42000    9.37000
     286       78        6    -0.49000    4.91000   13.50000    4.80000
     287       78        6    -0.49000    1.20000   14.03000    7.06000
     288       78        7    -0.51000    4.93000   10.68000    7.10000
     289       78        7    -0.51000    2.62000   11.00000    8.51000
     290       78        7    -0.51000    2.56000   10.90000    5.79000
     291       78        7    -0.51000    4.44000   13.02000    8.39000
     292       78        7    -0.51000    4.37000   12.92000    5.67000
     293       78        7    -0.51000    2.07000   13.25000    7.07000
     294       78        8     3.00000    3.50000   11.96000    7.09000
     295       79        6    -0.49000   24.10000   21.65000   24.07000
     296       79        6    -0.49000   28.06000   20.34000   25.40000
     297       79        6    -0.49000   25.31000   21.10000   19.90000
     298       79        6    -0.49000   25.69000   17.79000   22.75000
     299       79        6    -0.49000   27.68000   23.65000   22.55000
     300       79        6    -0.49000   29.27000   19.79000   21.23000
     301       79        7    -0.51000   25.08000   21.30000   23.53000
     302       79        7    -0.51000   26.06000   18.90000   22.71000
     303       79        7    -0.51000   27.54000   20.49000   24.36000
     304       79        7    -0.51000   25.83000   20.95000   20.94000
     305       79        7    -0.51000   27.30000   22.54000   22.59000
     306       79        7    -0.51000   28.29000   20.14000   21.77000
     307       79        8     3.00000   26.68000   20.72000   22.65000
     308       80        6    -0.49000    7.12000   28.98000   20.52000
     309       80        6    -0.49000    3.37000   26.73000   20.62000
     310       80        6    -0.49000    9.38000   25.23000   20.38000
     311       80        6    -0.49000    6.26000   26.03000   17.40000
     312       80        6    -0.49000    6.49000   25.93000   23.59000
     313       80        6    -0.49000    5.62000   22.97000   20.48000
     314       80        7    -0.51000    6.84000   27.84000   20.51000
     315       80        7    -0.51000    6.30000   26.01000   18.58000
     316       80        7    -0.51000    4.51000   26.44000   20.57000
     317       80        7    -0.51000    8.24000   25.51000   20.42000
     318       80        7    -0.51000    6.44000   25.95000   22.42000
     319       80        7    -0.51000    5.91000   24.11000   20.48000
     320       80        8     3.00000    6.37000   25.98000   20.50000
     321       81        6    -0.49000   -0.74000    4.59000   26.77000
     322       81        6    -0.49000    2.95000    2.64000   25.45000
     323       81        6    -0.49000    1.42000    8.37000   27.23000
     324       81        6    -0.49000    1.53000    6.24000   23.41000
     325       81        6    -0.49000    2.84000    4.77000   29.28000
     326       81        6    -0.49000    5.11000    6.42000   25.91000
     327       81        7    -0.51000    0.37000    4.94000   26.61000
     328       81        7    -0.51000    1.78000    5.96000   24.52000
     329       81        7    -0.51000    2.66000    3.72000   25.79000
     330       81        7    -0.51000    1.71000    7.28000   26.89000
     331       81        7    -0.51000    2.59000    5.05000   28.17000
     332       81        7    -0.51000    4.00000    6.07000   26.08000
     333       81        8     3.00000    2.18000    5.50000   26.34000
     334       82        6    -0.49000    7.98000    9.78000   16.83000
     335       82        6    -0.49000   11.47000   12.22000   17.83000
     336       82        6    -0.49000    6.75000   12.74000   13.85000
     337       82        6    -0.49000   10.77000   11.00000   13.68000
     338       82        6    -0.49000    7.46000   13.96000   18.00000
     339       82        6    -0.49000   10.24000   15.19000   14.85000
     340       82        7    -0.51000    8.41000   10.80000   16.45000
     341       82        7    -0.51000   10.14000   11.56000   14.50000
     342       82        7    -0.51000   10.58000   12.32000   17.07000
     343       82        7    -0.51000    7.64000   12.65000   14.61000
     344       82        7    -0.51000    8.08000   13.40000   17.18000
     345       82        7    -0.51000    9.81000   14.16000   15.23000
     346       82        8     3.00000    9.11000   12.48000   15.84000
     347       83        6    -0.49000   24.78000   20.61000    0.68000
     348       83        6    -0.49000   23.68000   16.42000    1.29000
     349       83        6    -0.49000   28.98000   19.44000    0.25000
     350       83        6    -0.49000   25.92000   17.59000   -2.28000
     351       83        6    -0.49000   26.74000   18.26000    3.82000
     352       83        6    -0.49000   27.88000   15.25000    0.85000
     353       83        7    -0.51000   25.37000   19.59000    0.71000
     354       83        7    -0.51000   26.08000   17.72000   -1.13000
     355       83        7    -0.51000   24.69000   16.99000    1.09000
     356       83        7    -0.51000   27.98000   18.87000    0.44000
     357       83        7    -0.51000   26.59000   18.14000    2.66000
     358       83        7    -0.51000   27.29000   16.26000    0.82000
     359       83        8     3.00000   26.33000   17.93000    0.77000
     360       84        6    -0.49000   20.54000    7.02000   19.34000
     361       84        6    -0.49000   20.98000   10.74000   21.61000
     362       84        6    -0.49000   21.49000    4.72000   22.94000
     363       84        6    -0.49000   18.23000    7.64000   23.01000
     364       84        6    -0.49000   24.24000    7.82000   21.54000
     365       84        6    -0.49000   21.93000    8.44000   25.21000
     366       84        7    -0.51000   20.81000    7.29000   20.46000
     367       84        7    -0.51000   19.37000    7.67000   22.73000
     368       84        7    -0.51000   21.08000    9.60000   21.86000
     369       84        7    -0.51000   21.40000    5.86000   22.69000
     370       84        7    -0.51000   23.10000    7.79000   21.82000
     371       84        7    -0.51000   21.67000    8.17000   24.10000
     372       84        8     3.00000   21.24000    7.73000   22.28000
     373       85        6    -0.49000    8.57000   29.35000   11.10000
     374       85        6    -0.49000    7.13000   31.09000   14.86000
     375       85        6    -0.49000   10.90000   26.41000   13.35000
     376       85        6    -0.49000    6.60000   26.81000   14.08000
     377       85        6    -0.49000   11.43000   30.69000   14.13000
     378       85        6    -0.49000    9.46000   28.15000   17.11000
     379       85        7    -0.51000    8.74000   29.13000   12.24000
     380       85        7    -0.51000    7.52000   27.55000   14.09000
     381       85        7    -0.51000    7.84000   30.20000   14.57000
     382       85        7    -0.51000   10.19000   27.30000   13.64000
     383       85        7    -0.51000   10.51000   29.95000   14.12000
     384       85        7    -0.51000    9.29000   28.38000   15.97000
     385       85        8     3.00000    9.02000   28.75000   14.11000
     386       86        6    -0.49000   18.74000   27.39000   15.93000
     387       86        6    -0.49000   14.53000   27.52000   17.11000
     388       86        6    -0.49000   17.61000   28.27000   11.79000
     389       86        6    -0.49000   16.32000   30.93000   15.03000
     390       86        6    -0.49000   15.81000   24.86000   13.87000
     391       86        6    -0.49000   13.40000   28.40000   12.97000
     392       86        7    -0.51000   17.73000   27.58000   15.37000