580
Atoms. Timestep: 10000
Mn 23.4591 16.2853 6.2481
Mn 3.62013 3.48669 25.0051
Mn 19.1765 25.6138 12.0886
Mn 21.102 13.3566 5.5495
Mn 3.11782 14.3503 7.91728
Fe 17.0102 5.65003 16.6773
Fe 14.7941 10.9786 16.069
Fe 9.94574 3.77593 16.1263
Fe 15.0628 20.236 4.24176
Fe 14.5534 24.7052 21.2679
Fe 18.2846 17.9988 3.2574
Fe 3.20886 17.0824 4.103
Fe 13.2604 8.68922 21.6403
Fe 16.5014 26.5833 4.5632
Fe 23.4349 4.46804 9.40725
Fe 23.486 20.7836 12.5858
Fe 15.4202 9.60488 26.055
Fe 21.0207 6.56115 3.14509
Fe 24.2502 12.7482 21.371
Fe 25.1981 15.6781 24.6876
Fe 10.7936 8.28364 9.64464
Fe 4.6322 26.1853 12.0596
Fe 10.862 3.08806 6.03334
Co 15.408 24.082 16.4336
Co 10.0675 23.3512 24.6548
Co 9.09183 7.28463 26.1252
Co 16.9692 7.65839 8.80625
Co 5.72521 17.6144 9.64767
Co 25.4661 23.0152 7.75213
Co 15.2499 21.5122 24.0008
Co 5.09432 26.6125 19.2077
Co 4.99559 14.92 14.5889
Co 14.8135 15.3682 23.1756
Co 26.8652 11.6511 15.6969
Co 7.72848 7.03948 13.3161
Co 21.5401 8.08028 9.92107
Co 18.1094 3.93437 21.4993
Co 14.1721 4.17017 10.1372
Co 22.7293 3.85157 16.307
Co 22.178 24.0923 4.05255
Co 10.5138 13.9058 8.80036
Ni 6.54784 24.7257 5.84253
Ni 23.4963 10.9775 13.078
Ni 21.5994 21.1919 18.3573
Ni 13.919 17.1506 13.0082
Zn 10.2262 15.3986 3.80383
Zn 17.7593 12.849 9.15726
Zn 26.6604 8.31806 18.4341
Zn 16.7355 16.5459 19.1438
Zn 19.3512 18.2227 12.3235
Zn 10.1124 12.606 18.5836
Zn 13.7552 19.8342 7.86249
Zn 4.6248 22.1161 13.0361
Zn 9.79096 14.5941 12.8157
Zn 20.4836 11.0391 21.3139
Zn 9.45222 22.9938 11.9957
Zn 10.1788 20.7349 18.0296
Zn 5.44449 10.3529 24.0838
Zn 25.3736 15.3213 17.6834
Zn 8.68891 15.949 22.3326
N 8.83136 16.3072 13.4874
N 7.57232 17.0839 9.26428
N 13.2757 18.6846 11.9312
N 8.64006 20.7369 11.5421
N 11.844 14.919 10.0141
N 11.7108 19.5412 8.14537
C 9.50724 17.1618 12.5085
C 9.50818 19.7103 11.5369
C 8.64604 17.6705 9.89077
C 12.1826 18.1035 11.6314
C 11.0194 16.0554 10.2664
C 11.0937 18.6568 9.09488
Co 10.2751 17.8846 10.8077
N 7.75879 6.67763 3.73939
N 9.99758 6.16041 24.4208
N 5.9435 25.934 3.82699
N 10.8144 3.63443 4.14601
N 5.1752 4.77893 24.7131
N 8.72422 24.8685 23.982
C 7.87235 5.46895 3.21326
C 9.85625 3.58446 3.09597
C 9.23108 5.15651 24.8457
C 7.03062 26.3253 3.10637
C 6.21321 4.12282 25.1971
C 8.50814 26.0848 24.6603
Co 8.09707 3.80457 25.978
N 12.5424 26.9087 7.22051
N 15.467 4.22291 4.91121
N 10.4806 7.09403 7.88363
N 11.2659 7.06875 3.13648
N 15.0544 6.18186 8.77265
N 14.3169 9.37885 4.73963
C 12.5951 4.3868 6.7438
C 12.0736 6.58506 4.22323
C 14.757 5.29659 5.34572
C 11.607 6.94064 7.15528
C 14.163 6.09579 7.76272
C 13.756 8.06141 5.34365
Co 13.1673 6.34507 6.03914
N 22.3333 5.68347 15.5132
N 18.0547 7.20679 15.6159
N 22.0374 5.89864 10.2943
N 22.1725 9.19738 12.8251
N 18.397 3.48045 12.7927
N 18.0926 7.35481 10.3746
C 21.4565 6.01431 14.4716
C 21.3549 8.06689 12.9445
C 19.0163 6.93977 14.6395
C 21.2691 6.14686 11.4756
C 19.1558 4.65654 12.7821
C 18.736 7.19487 11.677
Co 20.1592 6.38788 12.9844
N 19.3467 20.3068 18.9999
N 14.6491 22.2656 17.7635
N 16.9689 20.4755 23.815
N 15.4686 18.2447 20.637
N 16.4272 24.5046 20.3774
N 14.3654 22.4785 22.2716
C 18.3146 21.0126 19.5171
C 15.8433 19.4197 20.254
C 15.5867 21.9504 18.7724
C 17.0013 20.8412 22.3396
C 16.8374 23.2664 20.4686
C 15.064 22.1954 21.1972
Co 16.5372 21.3942 20.2561
N 18.9294 18.0741 5.23491
N 15.7114 19.2053 8.95905
N 19.3705 13.7738 7.64761
N 15.2951 15.2624 5.99883
N 19.9595 18.0909 10.1027
N 17.4155 14.8387 10.6361
C 18.4386 17.4857 6.44328
C 16.1174 16.0301 6.91101
C 16.55 18.1316 8.51287
C 18.5885 14.8373 7.71522
C 19.2015 17.361 9.2395
C 16.905 15.3153 9.45854
Co 17.6482 16.6039 8.01773
N 22.7719 3.85027 18.3849
N 21.2564 3.12922 14.9015
N 19.1321 25.9096 20.9452
N 22.3359 23.1856 18.1096
N 18.1634 4.64027 18.1062
N 17.4674 24.0836 16.7699
C 21.6883 26.8687 18.2921
C 21.309 24.09 17.8579
C 20.9249 26.4745 16.1492
C 19.3976 25.6767 19.603
C 18.992 3.68914 17.7671
C 18.61 24.8585 16.776
Co 20.0205 25.8368 17.7449
N 9.98661 21.8418 26.8301
N 12.6178 24.7518 24.6967
N 13.6931 21.8715 6.75282
N 10.1347 25.1921 5.05972
N 14.9547 21.2137 26.2065
N 14.9817 25.2274 4.78825
C 11.2142 22.2405 3.33797
C 11.1908 24.3713 4.57209
C 12.5849 24.0865 25.8788
C 13.0261 22.2173 5.5961
C 14.0506 22.0325 3.06338
C 14.0722 24.396 4.25534
Co 12.6578 23.2317 3.8019
N 18.3857 17.5315 14.2584
N 22.0131 19.3743 13.2249
N 16.0022 22.2125 15.0322
N 18.2015 20.0801 11.4337
N 21.4259 21.0069 16.4644
N 19.1128 23.9137 12.9683
C 18.9105 18.8554 14.5323
C 18.5682 20.5811 12.6521
C 21.1675 20.4638 13.5915
C 17.2941 21.7178 14.898
C 20.1529 21.3454 15.8758
C 19.4538 22.7511 13.7864
Co 19.1996 20.9944 14.3803
N 21.5324 12.492 26.9169
N 25.2262 11.9629 4.59946
N 22.1656 10.9839 22.6809
N 22.4619 8.11557 3.28628
N 24.5612 13.6228 23.6895
N 3.46598 10.1161 24.8986
C 22.238 11.7529 26.1126
C 23.225 9.14111 26.5371
C 24.6667 11.6314 3.42784
C 22.9244 10.7429 23.8387
C 24.3983 12.6498 24.5672
C 25.9347 10.3645 25.1283
Co 23.9604 10.8316 25.5701
N 17.9254 6.18167 7.78829
N 22.6333 5.37952 7.7532
N 17.3444 25.309 5.93659
N 20.2056 25.5574 9.94194
N 19.5082 5.37822 4.32546
N 22.4302 25.5737 5.63911
C 18.8428 5.08065 7.68768
C 19.8557 26.2791 8.75583
C 21.4872 4.74551 7.38563
C 18.3711 26.0893 6.38847
C 19.8212 4.56987 5.27274
C 21.4142 26.3723 6.20613
Co 19.9369 3.49997 6.97468
N 6.86134 8.79105 13.8323
N 10.2417 6.50345 16.6815
N 9.62118 12.9293 14.4833
N 9.64448 8.39725 12.2552
N 9.32127 10.4453 18.7318
N 12.7087 10.6639 15.7147
C 7.76235 9.19935 14.739
C 10.0113 8.93842 13.4731
C 10.0355 7.76089 16.2414
C 9.45625 11.5927 14.7528
C 9.33011 10.1629 17.3414
C 11.413 10.0858 15.805
Co 9.71976 9.54713 15.4284
N 6.36251 25.647 13.1345
N 4.09469 26.1524 17.5041
N 5.7293 6.6318 12.6949
N 7.94488 4.61009 17.0562
N 26.7336 3.43409 13.0522
N 3.91556 6.89576 17.0514
C 5.96052 26.6558 13.9972
C 6.78184 4.52182 16.2081
C 4.62711 3.14004 16.5327
C 5.77279 5.63741 13.6311
C 3.70177 3.88054 14.0586
C 4.34068 5.97962 16.1941
Co 5.25353 4.34721 15.1392
N 12.9882 16.1531 22.1388
N 8.3883 17.6036 20.9615
N 14.217 19.9842 23.5169
N 10.5506 17.0501 25.2166
N 11.8645 20.5074 19.3942
N 9.41269 21.5445 23.4858
C 12.1344 17.2146 22.0389
C 10.768 17.8845 24.1986
C 9.48924 18.3349 21.4973
C 12.9818 19.5727 23.2541
C 11.7056 19.7609 20.4736
C 10.2872 20.6383 23.0237
Co 11.223 18.9467 22.3648
N 4.64252 25.2381 6.46107
N 24.3851 3.5146 8.00904
N 3.36437 25.3706 26.0639
N 26.3524 4.84428 26.7213
N 24.2952 23.3205 6.00286
N 23.0711 26.3268 3.11334
C 3.44806 25.6808 5.92068
C 26.0901 4.11203 4.0447
C 24.9341 26.9265 6.73568
C 26.6967 25.4778 3.44877
C 24.9715 24.4395 5.62001
C 24.18 26.3508 3.93013
Co 25.7146 26.2427 5.08156
N 8.32064 14.8061 3.97105
N 7.45597 17.121 24.0616
N 4.22273 12.7947 3.90307
N 7.0627 11.8542 24.3036
N 4.8305 17.9253 26.8752
N 26.9325 14.8823 23.3788
C 7.47423 14.9463 26.8117
C 6.30516 12.9393 24.7656
C 6.9496 15.9262 24.4839
C 4.63308 13.9074 3.22558
C 5.20568 16.5912 26.5891
C 4.18035 14.7765 24.3308
Co 5.78349 14.7022 25.6793
N 23.2931 22.4962 13.5658
N 21.159 26.5263 12.3021
N 3.70556 24.4726 12.3658
N 24.0404 26.6999 15.1625
N 24.3342 24.0682 9.08391
N 24.9922 4.48966 10.7761
C 23.8302 23.5415 12.8718
C 24.3931 26.0239 14.0271
C 22.2831 25.945 11.9629
C 26.3038 24.5915 12.2097
C 24.3543 24.4173 10.3386
C 24.6582 3.24094 11.17
Co 24.3283 25.2393 12.0852
N 9.94208 10.0423 9.49539
N 7.25101 9.93106 6.4261
N 8.6233 14.3968 10.9316
N 5.53399 10.525 11.3694
N 9.29933 14.2057 7.25557
N 5.34661 14.2231 7.66068
C 9.01691 11.0155 9.18314
C 6.1744 10.9379 10.266
C 7.15071 10.6819 7.54941
C 8.07492 13.2966 10.2614
C 8.53637 13.1502 7.59896
C 5.92568 13.119 8.28385
Co 7.33455 12.0602 8.92548
N 24.9808 16.6268 22.8392
N 23.3058 15.2297 18.602
N 19.9931 17.3057 23.9635
N 22.1342 13.6562 22.2609
N 22.6573 19.9027 19.8482
N 19.0179 16.4422 19.6787
C 23.8663 16.9479 22.1858
C 22.1335 14.9343 21.9902
C 22.7738 16.2424 19.4562
C 20.8674 17.1873 22.8682
C 22.4383 18.7991 20.5575
C 20.2266 16.852 20.1487
Co 22.0619 16.8503 21.1986
N 8.79261 26.3335 15.1114
N 5.53126 23.4815 14.4951
N 11.0856 23.072 18.3904
N 10.2377 22.3877 13.9271
N 6.41807 24.2751 19.1639
N 8.08444 20.4482 17.5996
C 8.80755 25.3999 16.0785
C 9.41698 22.9661 14.8852
C 6.67668 23.3493 15.3053
C 10.059 23.2871 17.4811
C 7.35473 24.0344 18.1769
C 8.28222 21.6462 17.0276
Co 8.35887 23.5767 16.4048
N 26.5561 3.62108 19.298
N 6.05676 3.47667 20.8923
N 25.199 7.65913 20.3176
N 4.94238 8.25196 19.2772
N 26.0041 3.65783 23.47
N 5.40886 7.94032 23.2787
C 26.8535 4.68707 20.057
C 4.56288 7.1715 20.1678
C 5.31962 4.60035 21.1042
C 26.0171 7.13647 21.2415
C 26.8848 4.44954 22.8711
C 4.57063 7.09945 22.6578
Co 3.78166 5.87907 21.4119
N 10.0272 14.4644 17.5984
N 14.6448 16.164 18.9918
N 11.534 15.5628 13.0993
N 13.9141 13.021 16.0039
N 11.6696 19.4213 16.552
N 15.3328 17.3581 14.5326
C 10.9708 15.3326 17.1447
C 13.2271 14.2413 16.1169
C 13.5981 16.3799 18.1193
C 11.9763 15.8311 14.3506
C 11.748 17.9938 16.4544
C 14.2948 16.9755 15.2805
Co 12.6355 16.147 16.2446
N 25.0028 17.25 5.02778
N 22.4136 14.6712 5.27603
N 26.4044 16.4535 26.0172
N 23.5753 15.8602 25.9531
N 25.1933 15.1767 7.2704
N 4.23819 15.9441 5.39154
C 25.0782 15.8722 4.59402
C 24.398 14.9064 26.6451
C 23.7041 14.2577 5.02701
C 26.327 15.4304 26.7917
C 25.2066 14.891 5.89352
C 3.08448 15.2527 4.88913
Co 25.6203 13.8296 4.0314
N 14.9362 7.63957 22.3279
N 19.5602 9.92588 23.2044
N 17.4671 4.03827 24.3402
N 16.5737 7.95954 26.2277
N 18.4937 5.74781 20.5796
N 20.8132 6.33374 25.056
C 16.1843 7.63182 22.7006
C 17.1487 7.48907 25.1617
C 18.9015 8.76568 23.1564
C 17.2334 5.19911 23.7507
C 18.4931 6.07359 21.8464
C 19.5276 6.43624 24.5478
Co 17.9172 7.03243 23.602
N 9.28782 3.3264 7.22366
N 8.98378 7.57505 10.1707
N 9.37105 24.9548 11.4857
N 5.74101 3.54005 10.7185
N 12.1916 4.931 10.2729
N 8.94042 5.57839 13.7358
C 9.36182 3.7577 8.53317
C 7.00189 3.8387 10.9401
C 8.79625 6.17084 10.278
C 9.41867 26.2857 11.236
C 11.0037 4.37632 10.5227
C 9.36386 4.79921 12.6677
Co 9.11124 4.18613 10.5541
N 16.7217 4.23159 15.3654
N 11.5505 3.90478 14.8436
N 17.2171 25.1165 11.4472
N 14.8383 5.42066 11.5707
N 13.801 24.0498 15.3281
N 13.2306 25.8842 10.1352
C 15.7298 3.54906 14.6669
C 14.9456 4.39349 12.4168
C 12.9099 3.56033 14.3748
C 16.3035 25.6485 12.4063
C 14.1981 24.992 14.383
C 13.6705 26.1757 11.4594
Co 14.5894 26.62 13.3285
N 12.8132 25.4855 21.7445
N 14.9779 25.9673 17.7272
N 12.2254 6.98019 21.1931
N 11.2462 3.22243 17.9651
N 16.3504 3.44191 21.6894
N 15.2903 6.33328 17.3379
C 13.256 26.5069 21.0522
C 12.0786 4.1189 18.5691
C 14.5929 26.7992 18.6789
C 12.7928 5.81102 20.885
C 15.4299 4.29634 20.9784
C 14.5791 5.59197 18.2889
Co 13.6504 4.38954 19.8177
N 22.8309 12.6421 12.1484
N 19.5232 11.4647 9.61715
N 25.9007 12.6021 7.87117
N 22.4032 15.5197 8.02642
N 23.3708 8.93918 9.8203
N 21.4753 11.2559 5.88245
C 23.081 12.287 10.9294
C 22.3443 14.1409 8.15923
C 20.7874 11.9425 9.36699
C 24.6237 12.279 8.15026
C 23.186 10.2868 9.38074
C 22.1537 11.738 7.09657
Co 22.7269 12.177 9.04722
N 20.7894 8.31291 18.4556
N 25.758 8.63342 16.4842
N 21.432 12.3991 19.7852
N 22.0914 10.9746 14.5498
N 25.0359 10.7946 20.8054
N 25.6771 13.0043 16.8255
C 21.9273 9.13265 18.2521
C 22.4914 10.7565 15.943
C 24.602 9.22421 16.9378
C 22.3111 11.655 18.9416
C 24.212 10.4159 19.7888
C 24.6488 12.1409 17.2025
Co 23.331 10.5332 17.7948
N 6.28721 16.4403 15.437
N 3.2633 14.9942 13.4658
N 5.87388 20.6469 14.4682
N 25.3296 17.5941 16.8131
N 5.52117 18.081 11.6889
N 25.2576 20.6744 13.3468
C 5.10967 16.9913 15.2933
C 26.2776 17.9764 15.9002
C 26.7894 16.1875 14.1032
C 4.60578 19.9607 14.4076
C 4.71444 18.1388 12.6537
C 25.8353 19.5533 13.8533
Co 3.54639 18.1668 14.339
N 11.6488 15.901 5.68295
N 18.012 15.8483 3.25554
N 13.1249 19.5056 4.55468
N 14.1915 16.1611 24.9353
N 15.9027 19.2397 6.03884
N 16.5658 19.3068 3.38546
C 12.8533 16.2922 5.21421
C 14.4238 16.341 26.3205
C 16.7063 16.3072 3.66048
C 13.9614 18.3358 4.57299
C 15.2366 18.2126 5.36134
C 15.8076 18.1797 3.75148
Co 14.8105 16.3727 4.47175
N 18.5648 11.5976 20.8612
N 15.3247 10.0301 17.6284
N 15.7956 15.3979 21.4781
N 14.256 10.2732 22.2521
N 16.4556 14.5453 17.3074
N 12.2142 12.8051 18.9703
C 17.3745 12.2501 20.4942
C 14.9063 11.2297 21.4715
C 15.5607 11.0456 18.4873
C 15.555 14.0256 21.2331
C 16.0723 13.9305 18.5586
C 13.5531 13.0184 19.2585
Co 15.5342 12.5583 19.9791
N 13.7613 9.72055 25.1077
N 13.8475 13.4 23.3578
N 8.85555 9.05933 25.0864
N 11.7081 10.1798 21.2691
N 11.377 13.6586 26.8059
N 8.80794 13.8608 23.0253
C 12.7212 10.572 24.8965
C 11.5099 10.8593 22.5417
C 12.5972 12.9526 23.3762
C 9.66259 10.2845 24.9057
C 11.1436 12.9194 25.7265
C 9.77641 12.9415 23.2812
Co 11.1545 11.7241 24.1993
N 19.6637 9.31924 8.2013
N 19.1362 13.4015 4.82748
N 16.2225 7.94404 6.97488
N 19.7734 8.31775 3.41058
N 16.3415 12.4773 7.39002
N 15.8113 11.6201 26.6875
C 19.2205 9.95691 7.12344
C 19.178 9.11073 4.20131
C 19.0525 12.1166 4.98213
C 16.9116 8.942 6.36726
C 16.8489 11.3695 6.73359
C 16.6903 11.0331 3.78565
Co 17.9829 10.368 5.4886
N 21.1595 23.2213 5.69327
N 18.0168 25.8212 3.40377
N 19.4207 19.5126 26.8778
N 21.6376 23.5996 25.9185
N 15.8297 22.0264 5.15232
N 16.8211 22.8584 24.4476
C 20.112 22.868 4.85723
C 20.4673 23.1399 26.2437
C 18.0574 24.5223 3.6134
C 19.2845 20.7828 26.8991
C 17.0745 22.1927 4.45733
C 17.4991 22.7348 25.6427
Co 18.7369 22.6617 3.38503
N 12.274 12.9247 8.62075
N 14.4534 15.4344 11.8168
N 12.7222 8.65391 10.3455
N 10.6439 12.778 11.784
N 16.7377 11.2049 10.218
N 15.2911 10.8198 14.1104
C 13.0467 12.325 9.58578
C 11.9388 12.3711 11.9943
C 14.3033 13.9113 11.8195
C 13.0074 9.90929 10.9797
C 15.567 11.6697 10.4336
C 14.5134 11.1939 13.0535
Co 13.818 11.8382 11.3462
N 4.08859 20.9712 11.1074
N 23.035 21.1508 10.6396
N 3.8158 16.7786 8.49328
N 25.7719 20.8955 6.47507
N 24.7323 17.7706 12.2631
N 23.0316 17.6998 7.45685
C 26.867 20.3646 10.4474
C 25.4327 20.595 7.69281
C 24.0226 20.3537 10.202
C 26.8721 17.9721 8.68565
C 25.0695 18.1597 11.0326
C 24.0572 18.097 8.23055
Co 25.4468 19.3644 9.38849
N 4.52807 9.7023 15.2824
N 3.71032 14.05 10.0294
N 4.29038 13.191 15.4567
N 24.8784 10.2651 11.8737
N 6.10647 14.0631 13.2946
N 25.2172 11.8177 14.384
C 4.60103 10.5418 14.1345
C 26.1753 10.8233 12.0181
C 3.90152 13.2097 11.1459
C 4.05331 12.6384 14.2894
C 5.28148 13.056 13.181
C 26.3961 11.9361 13.577
Co 4.1795 11.5839 12.5185
N 3.25212 10.6131 17.5678
N 25.6039 13.6675 20.5436
N 7.88062 12.9974 18.2848
N 5.27704 10.3175 21.8188
N 3.80515 15.3938 17.3519
N 6.37276 14.7493 21.8579
C 3.90232 11.7541 17.9692
C 5.29521 11.3865 20.873
C 26.8555 13.3009 20.0814
C 6.7376 12.8544 18.8502
C 4.35835 14.469 18.2877
C 5.58149 14.2139 20.8914
Co 4.8782 12.8972 19.4756
N 7.27484 25.3894 7.70876
N 3.42194 22.8623 8.41734
N 9.76523 22.3755 9.61221
N 6.90168 22.7825 5.12143
N 6.35011 22.9325 12.0902
N 6.32285 18.9623 8.06859
C 6.75171 24.3442 8.31912
C 6.88741 22.565 6.52664
C 4.853 22.6735 8.4556
C 8.55423 22.2543 8.98935
C 6.31994 22.6905 10.7429
C 6.39647 20.367 8.55998
Co 6.58104 22.4539 8.55897
580
Atoms. Timestep: 20000
Mn 22.484 16.0686 6.99437
Mn 5.07219 4.35987 24.8176
Mn 18.2902 24.8415 12.7297
Mn 21.2075 13.1346 5.41433
Mn 26.6137 14.5595 8.79181
Fe 16.2838 5.66837 15.8046
Fe 16.3073 9.49105 14.9604
Fe 10.6364 4.57226 16.7141
Fe 10.7558 18.164 6.62346
Fe 11.8586 24.106 23.4359
Fe 18.5654 19.9867 23.9965
Fe 4.95541 18.2559 6.75936
Fe 14.9701 9.15595 19.3414
Fe 16.2374 3.8999 4.23624
Fe 22.5952 5.00422 8.27766
Fe 22.3584 19.7211 13.1721
Fe 15.5526 9.17947 25.8173
Fe 21.3479 7.45415 4.03847
Fe 23.6784 13.2004 21.8246
Fe 25.3876 17.7354 26.1076
Fe 8.41814 9.43599 7.16848
Fe 3.8993 26.1492 10.3966
Fe 9.88581 3.34696 5.78718
Co 14.149 24.601 16.7055
Co 9.16346 20.2965 25.078
Co 10.2684 7.64057 23.4542
Co 16.7174 7.89956 8.36823
Co 5.59406 17.8562 10.996
Co 23.966 22.0723 7.98443
Co 14.3563 19.4819 24.5877
Co 6.49781 26.3619 19.284
Co 4.69591 13.2152 15.4549
Co 15.3152 14.7783 20.6089
Co 26.1195 9.91143 17.0501
Co 8.18243 7.07021 13.3448
Co 21.5797 10.3361 13.1577
Co 17.4406 26.4703 22.3072
Co 12.4215 6.23233 10.1403
Co 22.6415 4.81488 15.453
Co 21.4235 24.5886 26.15
Co 11.5974 14.1986 8.00261
Ni 6.21524 24.087 5.9222
Ni 25.5321 13.3785 12.4652
Ni 20.2517 21.8831 19.5537
Ni 14.2238 16.1624 11.1892
Zn 10.6653 15.4147 26.5534
Zn 17.2722 12.3025 9.46687
Zn 7.29351 8.90649 17.0194
Zn 19.4615 15.4613 17.9538
Zn 18.3816 17.5211 13.1439
Zn 10.1283 14.2815 18.5407
Zn 15.7762 20.9755 7.03856
Zn 6.16277 21.3768 15.2071
Zn 10.9627 13.8639 13.6227
Zn 21.2128 10.2057 20.7862
Zn 9.69199 22.996 11.5275
Zn 13.898 20.2148 17.1652
Zn 5.1302 9.41825 23.2578
Zn 25.7465 16.1425 18.9888
Zn 9.23294 14.7163 22.5745
N 10.6271 15.9858 14.4672
N 7.15532 16.2159 10.8934
N 13.2439 18.0676 11.5155
N 9.45124 20.5556 12.7437
N 11.4395 14.683 10.0522
N 9.95289 18.7778 8.43785
C 10.3027 16.5589 13.1769
C 9.58457 19.2798 12.3056
C 8.13479 17.1756 11.0803
C 11.9866 17.9239 11.5025
C 10.8807 15.8674 10.6607
C 9.92906 18.7222 9.79772
Co 10.077 17.6086 11.5193
N 6.99095 5.03172 3.80359
N 10.5385 5.51748 23.6352
N 7.49456 24.278 4.13435
N 11.0244 3.79684 4.31095
N 5.82267 26.2404 23.7661
N 9.80083 23.8589 23.6347
C 7.81196 4.45327 26.3003
C 10.3168 3.7249 26.4134
C 9.52638 4.64244 24.1729
C 8.04698 25.1766 3.34323
C 7.05414 26.1476 24.1914
C 9.66262 25.1116 24.178
Co 8.82403 26.5344 25.1333
N 9.806 5.19503 6.78254
N 14.3998 5.06984 5.09948
N 9.78394 10.0384 6.07692
N 10.8066 7.20705 25.8098
N 13.395 7.35624 8.73242
N 14.0808 9.46448 3.92842
C 10.8024 5.99399 6.31095
C 11.4205 7.25628 3.69506
C 13.6068 6.10256 5.34049
C 10.4368 8.83116 5.95588
C 12.7878 7.72813 7.52329
C 13.2159 9.12944 4.77792
Co 11.9507 7.45163 5.53641
N 21.2343 5.92404 14.7691
N 16.9589 7.63813 15.4365
N 21.2307 6.15697 9.88477
N 19.6502 10.1062 13.2054
N 17.8285 4.041 12.1934
N 16.3339 7.72929 10.513
C 20.2326 6.17947 13.9616
C 19.7723 8.90238 12.7735
C 17.5169 7.1711 14.1665
C 20.2492 6.46416 10.9701
C 18.3416 5.21324 12.3676
C 17.5582 7.45442 11.2051
Co 18.9383 6.90973 12.4812
N 19.0149 21.9512 21.1668
N 14.9102 24.3441 18.7244
N 16.6054 20.2809 23.6547
N 15.2319 20.077 19.2026
N 16.2533 25.1117 23.4698
N 12.2544 22.7906 22.0818
C 17.804 22.3464 21.0204
C 15.4534 21.0365 20.0737
C 15.3453 23.5361 19.6691
C 16.1289 21.1905 22.73
C 15.9215 24.0721 22.5914
C 13.6672 22.6298 22.0662
Co 15.6658 22.6342 21.3397
N 20.7038 16.4275 5.70092
N 17.9936 20.0552 7.21617
N 19.2892 13.5278 8.20083
N 16.1327 16.2579 5.17638
N 19.4674 17.7626 10.8392
N 15.6956 16.7116 9.91163
C 19.9126 16.7696 6.77401
C 16.9263 16.369 6.38601
C 18.2324 18.732 7.6488
C 18.7238 14.7467 8.0501
C 19.2612 17.1329 9.58493
C 16.7727 16.8446 8.97852
Co 18.299 16.7179 7.91515
N 21.8468 4.46355 17.2715
N 19.7891 26.3234 14.2527
N 18.2622 25.5661 20.6674
N 21.0085 23.2496 17.8354
N 17.4824 5.69422 17.4545
N 16.1284 24.7114 16.4453
C 20.7154 3.8033 17.7304
C 20.1697 24.3389 17.9295
C 19.5932 26.0122 15.5502
C 18.5444 25.8317 19.2924
C 18.0266 4.45206 17.2934
C 17.3039 25.0811 16.8932
Co 19.0691 26.0178 17.4277
N 8.59911 21.9525 25.8809
N 12.9586 24.3843 25.262
N 9.94885 19.8803 5.80275
N 11.0844 24.6748 5.65554
N 11.7853 19.6085 24.7277
N 14.5612 21.561 5.43202
C 9.77909 22.0003 26.4913
C 11.3164 23.3737 5.1452
C 12.1125 23.4641 25.7738
C 10.9566 20.3835 4.94606
C 11.7891 20.6028 25.6822
C 13.6219 21.7072 4.48623
Co 11.6674 21.9029 3.78153
N 18.0459 17.0521 15.6262
N 20.9282 18.7879 14.3817
N 15.5732 21.4276 16.7791
N 17.2561 19.1828 12.6276
N 18.9217 20.9381 18.4091
N 18.8558 23.3179 13.9865
C 17.9282 18.4275 15.6774
C 17.7379 20.0511 13.5449
C 19.9889 19.7919 14.7602
C 16.5068 20.8771 16.104
C 18.9106 20.743 17.1528
C 18.5934 22.2312 14.8166
Co 18.233 20.3998 15.3098
N 21.4006 13.2839 3.23917
N 25.8107 12.4089 4.69356
N 22.8026 11.0104 22.1794
N 22.9355 8.67636 3.77394
N 24.4796 14.3331 23.7099
N 26.6873 9.70188 24.1802
C 22.4379 12.5054 26.053
C 23.2095 9.87773 26.3292
C 24.8684 12.2882 3.72666
C 23.0959 11.101 23.4985
C 24.5424 13.0882 24.4132
C 25.5723 10.4688 24.571
Co 23.8969 11.4579 25.3371
N 17.8298 5.92396 8.48772
N 21.8906 6.46901 5.69346
N 16.3585 26.0359 6.126
N 21.4248 3.48874 8.76221
N 17.0535 5.71416 3.88447
N 20.8607 26.5199 3.60783
C 18.5063 5.47443 7.35247
C 20.4691 3.59911 7.83772
C 20.923 5.52067 5.77966
C 17.6082 26.6632 6.07469
C 18.0081 5.19204 4.60669
C 20.2925 3.25804 4.91147
Co 19.2505 4.29594 6.10669
N 8.8651 9.8269 18.4847
N 10.5242 6.32443 15.4679
N 10.7804 13.1387 15.7348
N 9.14119 10.4379 13.2755
N 13.3661 9.9997 18.1562
N 14.2453 9.27189 14.4534
C 9.68039 9.85261 17.3377
C 9.80275 9.7279 14.2907
C 11.0112 7.57832 15.6462
C 11.1092 11.8261 15.6784
C 12.2472 9.88871 17.2858
C 12.9545 9.57486 14.6398
Co 11.2103 9.62168 15.7521
N 4.79843 26.2772 12.3246
N 5.52903 26.4093 17.5183
N 4.64227 7.47709 12.5186
N 8.19395 5.20341 14.4762
N 24.7425 5.16596 15.3175
N 5.38563 7.47566 17.2276
C 4.61958 3.68097 13.5215
C 6.85946 5.30445 14.5835
C 5.38041 3.87038 16.3179
C 4.41734 6.48531 13.5177
C 26.0341 5.0245 15.1513
C 4.99113 6.44972 16.2924
Co 4.80512 5.10759 14.9345
N 13.2029 14.7272 20.4721
N 9.02566 16.0262 20.2305
N 14.8587 18.767 22.7774
N 11.0639 15.6834 23.83
N 12.2865 19.455 18.5078
N 9.63357 19.7669 23.2871
C 12.7334 16.0555 20.6068
C 11.3668 16.646 22.9732
C 10.1493 16.7618 20.6134
C 13.6191 18.3225 22.2152
C 12.244 18.8668 19.6988
C 10.4743 19.0412 22.1952
Co 11.7858 17.6843 21.4206
N 4.61219 25.0946 6.6666
N 23.753 4.63667 6.68168
N 3.86027 23.5382 26.0607
N 3.67825 4.64142 26.404
N 24.214 22.8375 5.97541
N 22.9976 25.6005 25.7203
C 3.622 25.4977 5.80529
C 26.499 3.62036 3.63158
C 24.5222 3.73481 5.78252
C 2.99518 24.1435 3.66188
C 24.7067 24.0546 5.50895
C 24.0065 25.9707 3.23462
Co 25.504 25.664 4.65187
N 8.96339 14.7065 4.33704
N 9.57115 18.6131 25.9805
N 4.69951 14.4454 4.14539
N 7.80935 15.2532 24.0646
N 7.07009 18.0858 6.54128
N 4.04424 18.6993 25.6323
C 8.44641 15.7023 3.80278
C 6.95035 15.7943 25.0299
C 8.2674 18.008 26.2533
C 5.53831 15.4747 4.01203
C 6.75266 17.5064 5.1962
C 5.1676 17.9491 26.0779
Co 6.77171 16.764 3.36078
N 21.9839 21.8993 12.4104
N 19.4958 25.2263 11.1144
N 26.2115 24.034 10.8854
N 23.1051 26.6729 13.9806
N 22.3821 23.6261 8.0595
N 24.2484 4.38077 9.61824
C 22.2259 23.0914 11.7785
C 22.8867 25.7304 12.984
C 20.8046 25.4482 11.1291
C 24.9032 24.4122 11.2162
C 22.8078 24.1153 9.26994
C 23.6823 3.34315 10.3445
Co 22.8603 24.9231 11.2636
N 9.68561 9.28051 8.96409
N 6.41974 10.1827 6.99626
N 8.69905 13.6058 12.6798
N 5.92818 9.61073 11.59
N 9.75792 13.4757 7.66789
N 4.92658 14.0471 9.82365
C 9.06675 10.5721 9.44523
C 6.7571 10.6332 11.1803
C 7.08876 10.8523 8.09649
C 8.43714 12.8879 11.5117
C 8.69419 13.1843 8.60791
C 6.07672 13.1962 9.8245
Co 7.67696 11.8978 9.77403
N 24.0601 18.0094 24.4659
N 24.6064 17.8632 19.3425
N 19.1747 17.8706 23.9345
N 22.1869 14.6049 21.946
N 21.8543 21.2811 21.0547
N 20.1062 17.3052 19.0733
C 23.1933 18.0943 23.532
C 22.1387 15.9708 22.0698
C 23.7464 17.9674 20.489
C 20.272 17.851 23.1942
C 21.7494 19.9811 21.7906
C 20.8338 17.3968 20.1872
Co 22.019 17.8577 21.781
N 8.84115 3.45198 17.14
N 5.78135 23.5519 15.327
N 12.1126 23.3559 17.8273
N 10.2578 23.5815 13.6654
N 7.16977 24.4888 19.654
N 7.80461 20.555 16.2055
C 8.91445 25.5707 16.5883
C 9.6376 23.3225 14.9226
C 7.02034 23.8076 16.0655
C 10.6009 23.322 17.5311
C 8.05861 24.3775 18.6084
C 8.26936 21.8018 16.7164
Co 8.77467 23.6328 16.7998
N 4.23573 4.28838 19.2921
N 7.86433 3.51391 20.9118
N 4.8423 9.40931 21.2242
N 8.17197 7.2089 18.2033
N 4.33741 5.43735 23.3108
N 8.18102 7.66803 23.2075
C 5.06649 5.15967 19.9248
C 7.33382 7.14978 19.2217
C 7.30687 4.72208 20.9027
C 5.16867 8.12978 20.9708
C 5.27432 5.77157 22.4042
C 7.51632 7.3485 22.015
Co 6.35165 6.31705 20.8608
N 11.9492 14.8534 17.3649
N 15.8693 16.1794 18.7395
N 13.08 15.0186 12.4024
N 15.3542 12.0957 15.497
N 13.7929 18.734 15.5014
N 16.5136 16.1778 13.1053
C 13.0487 15.0654 16.5989
C 15.0416 13.419 15.6085
C 15.6431 16.1077 17.3795
C 13.4716 15.0957 13.8261
C 13.8981 17.497 15.5031
C 15.9797 16.0444 14.2887
Co 14.5483 15.4771 15.5658
N 24.8869 15.4489 8.167
N 22.6734 14.4202 5.90623
N 26.3116 17.9791 4.50589
N 24.012 16.3819 26.5104
N 26.767 12.6954 8.295
N 4.33323 16.4754 7.18586
C 25.3286 15.2312 6.87661
C 24.9534 15.5436 3.7776
C 24.1098 14.5419 5.79269
C 26.4128 16.4855 4.68974
C 26.4577 13.3317 7.08895
C 3.5554 15.7348 6.35251
Co 26.0888 14.3737 5.10833
N 16.4855 7.88297 19.9811
N 19.59 10.9326 22.2453
N 18.8927 4.47568 22.6123
N 16.4882 7.68931 24.639
N 21.7944 7.96711 20.7879
N 20.8776 7.08556 25.0493
C 17.4913 7.93898 21.0119
C 17.2919 7.52459 23.7313
C 19.0841 9.59859 22.4167
C 18.9654 5.72845 22.4698
C 20.6453 7.73614 21.2931
C 20.0467 7.37985 24.0073
Co 18.8706 7.55224 22.3528
N 8.17697 25.5572 6.76289
N 7.86428 7.7143 7.95051
N 8.52161 24.9541 11.2961
N 4.83322 4.82878 10.3404
N 11.6026 4.67545 8.92854
N 9.0183 6.71814 11.7607
C 8.23567 3.03823 7.87258
C 6.14433 4.5969 9.96675
C 7.95384 6.39798 8.44413
C 8.37334 26.1963 10.5328
C 10.1544 4.68745 9.22854
C 8.5589 5.7217 10.997
Co 8.17494 4.57253 9.52664
N 15.1887 4.07137 15.4557
N 10.94 3.70398 14.6229
N 16.4338 24.6265 12.1287
N 13.6198 4.94738 11.1439
N 14.2271 23.1031 15.4026
N 11.4811 24.0896 10.9735
C 14.7328 26.5908 14.4355
C 13.3912 3.72577 11.7349
C 11.9545 26.5088 13.9015
C 15.1212 24.7842 12.1562
C 13.7194 24.1176 14.6471
C 12.283 24.8558 11.8356
Co 13.4971 25.5691 13.1978
N 11.852 25.6121 21.6628
N 13.0014 26.3924 17.2853
N 12.2216 7.38404 22.5872
N 10.4077 5.86514 18.4877
N 16.0208 4.4039 21.5778
N 14.2881 7.26552 17.845
C 12.0086 3.47563 21.172
C 11.4396 5.63801 19.3598
C 13.0399 3.86069 18.4162
C 12.6917 6.50821 21.6119
C 14.8524 4.61197 20.931
C 13.962 6.76054 19.1478
Co 13.0656 5.14145 20.1522
N 20.8882 12.9636 13.2209
N 18.867 10.6117 10.1362
N 25.0976 13.2336 10.3797
N 21.5348 15.4917 8.78693
N 22.5454 9.35823 11.7099
N 22.2638 12.0876 6.78689
C 21.4375 12.8382 11.9459
C 21.4545 14.3775 9.52812
C 20.0574 11.4767 10.2345
C 23.7336 13.0007 10.4548
C 22.3035 10.5324 10.9214
C 22.2498 12.0292 8.20041
Co 21.7987 12.4021 10.1534
N 22.2662 10.6086 15.2096
N 24.8493 9.89193 18.6132
N 21.3456 15.6296 16.8718
N 25.4189 13.3169 14.8028
N 21.8332 12.4432 20.3227
N 24.5575 14.7552 19.8265
C 22.4727 11.7092 15.9504
C 24.6709 13.181 15.965
C 24.1841 10.9904 17.9449
C 21.9395 14.4264 17.2
C 22.2722 12.5568 19.0566
C 24.3507 13.9261 18.7447
Co 23.3106 12.9171 17.3748
N 5.23155 15.2498 15.761
N 24.5735 16.1454 17.0198
N 6.048 18.2944 13.0873
N 4.58316 20.0025 16.395
N 25.1314 15.2191 12.3262
N 24.2438 19.8883 13.779
C 4.38546 16.1978 15.3163
C 4.0145 18.9998 15.7249
C 25.1144 16.9788 16.0896
C 4.73256 18.0776 13.4659
C 25.5565 15.9634 13.3476
C 25.2901 19.0789 14.0265
Co 26.515 17.5048 14.6466
N 13.6277 14.7773 8.58261
N 13.8574 18.6489 26.4029
N 10.8655 17.0068 4.94636
N 12.6234 14.3323 3.73583
N 11.31 16.385 7.38561
N 14.7005 19.3818 7.80464
C 13.7966 15.3307 7.36855
C 13.4345 15.1552 4.54283
C 13.9018 17.8157 4.245
C 12.2317 17.1307 5.29419
C 12.5139 16.3444 6.64556
C 14.4786 18.1757 7.05861
Co 14.1968 16.5588 5.74656
N 20.4916 9.50036 18.7028
N 16.0192 9.2287 17.0093
N 18.9375 14.5795 19.6975
N 16.3546 10.1013 21.2361
N 18.6033 13.4787 16.4249
N 14.9834 13.4313 18.933
C 19.6236 10.5129 18.734
C 16.9326 10.6833 20.2222
C 16.664 10.1092 17.9508
C 18.7339 13.212 19.7027
C 18.3479 12.5328 17.3425
C 16.1003 12.5568 18.9816
Co 17.8551 11.4861 18.8934
N 14.362 9.77387 24.1338
N 15.0305 13.7974 22.1983
N 9.71178 9.64325 23.6598
N 13.5778 9.55856 20.6148
N 10.8064 13.4045 25.483
N 10.4231 14.0375 20.9259
C 13.4904 10.7354 23.8748
C 13.0133 10.5218 21.293
C 13.9075 12.906 22.4834
C 10.74 10.4701 23.0949
C 11.2643 12.9969 24.2726
C 10.9818 13.0363 21.5976
Co 12.2061 11.755 22.7549
N 20.0965 9.74561 7.96266
N 19.3696 13.648 5.08097
N 16.1204 7.93627 6.49903
N 20.3516 9.10362 3.58105
N 16.1374 12.7432 7.53058
N 16.4375 10.868 26.1332
C 19.3094 10.249 6.96625
C 19.494 9.50587 4.45951
C 19.0701 12.38 5.22795
C 17.1154 8.95176 6.16212
C 17.0829 11.8707 6.97253
C 16.9691 10.7258 4.09777
Co 18.1006 10.6225 5.65536
N 20.8369 23.3436 4.21543
N 17.1632 26.0998 26.313
N 18.4279 19.5309 26.1924
N 19.1788 21.9907 24.0106
N 16.7279 23.0717 6.71217
N 14.53 21.9992 25.1293
C 19.3784 23.3644 4.01314
C 18.5277 22.7009 24.9178
C 17.1237 24.84 26.5102
C 17.9275 20.6981 26.7943
C 16.9645 22.9217 5.40689
C 15.5036 22.5702 25.9847
Co 17.434 22.868 3.40483
N 12.2959 12.3603 8.40948
N 15.8973 13.9529 10.7892
N 12.3261 8.10794 10.9543
N 11.7708 11.8076 13.0736
N 16.514 9.85119 8.97036
N 16.6532 10.1636 13.1868
C 13.0614 11.7863 9.41064
C 12.9625 11.8388 12.3146
C 15.4391 12.6802 10.9026
C 13.0586 9.27677 11.0447
C 15.5088 10.4595 9.70399
C 15.5693 10.3392 12.2637
Co 14.1803 11.083 11.0295
N 4.17218 19.3848 11.2014
N 23.183 21.3383 9.59845
N 4.14758 16.4419 10.3031
N 26.5405 19.4065 6.61197
N 23.285 17.9439 12.0546
N 22.6357 17.9924 7.36935
C 26.4141 19.2578 10.1338
C 26.07 18.9165 7.65497
C 23.9163 20.2448 9.3264
C 26.4301 17.0904 9.62624
C 23.9198 18.488 11.0038
C 23.456 17.8047 8.39916
Co 24.897 18.5547 9.31025
N 7.29523 8.17923 15.0139
N 4.42186 13.383 13.0964
N 3.88588 11.4437 16.3312
N 25.2338 11.2815 12.5829
N 6.47851 12.1258 15.6487
N 26.2625 8.49332 15.5205
C 6.35193 8.92793 14.3269
C 26.5317 11.1192 12.7023
C 4.34826 11.993 13.2717
C 4.2533 10.6238 15.2986
C 5.90607 11.2747 14.6345
C 3.50522 9.28525 14.5014
Co 4.86348 9.92061 13.2947
N 6.0885 10.4457 18.1721
N 25.1975 11.9132 20.8664
N 8.24645 13.5112 19.1817
N 6.42722 11.3695 23.5712
N 3.67719 14.5759 18.0704
N 5.05071 15.6798 21.7223
C 5.43121 11.1172 19.1986
C 5.79031 11.5068 22.3103
C 26.5625 12.1836 20.8196
C 7.07717 13.0055 19.8468
C 4.51167 13.7095 18.7915
C 5.11176 14.3875 21.3904
Co 5.16127 12.5922 20.4196
N 5.68174 25.0628 10.2511
N 25.8316 21.8161 8.98526
N 9.19338 21.8687 9.74757
N 6.15848 22.2158 5.92908
N 5.78855 21.6697 12.6729
N 5.4124 18.482 8.5898
C 5.82994 23.9492 9.53522
C 6.07315 21.9866 7.32685
C 3.88063 21.8091 9.02355
C 7.89067 21.976 9.374
C 5.90086 21.6148 11.1659
C 6.07517 19.7553 8.84016