LAMMPS (29 Oct 2020)
log             log.box append
