ITEM: TIMESTEP
10000
ITEM: NUMBER OF ATOMS
580
ITEM: BOX BOUNDS xy xz yz pp pp pp
2.8604774490657388e+00 2.7139522550934473e+01 0.0000000000000000e+00
2.8604774490657388e+00 2.7139522550934473e+01 0.0000000000000000e+00
2.8604774490657388e+00 2.7139522550934473e+01 0.0000000000000000e+00
ITEM: ATOMS id type x y z
26 4 6.32843 4.45581 4.05254
321 6 6.13389 6.14357 3.15739
75 6 8.17957 4.87716 4.97825
327 7 4.71225 6.26792 3.13829
82 7 7.65573 3.66255 5.54005
74 6 4.74349 4.69857 5.43506
288 7 7.10924 7.49381 7.90655
15 4 3.25937 5.40751 7.00218
290 7 4.13811 8.10878 8.15227
282 6 7.83532 6.50744 7.62131
283 6 3.14754 7.25948 7.8173
81 7 7.66591 3.20729 7.6388
80 7 5.32692 3.48971 6.01112
77 6 7.89554 4.02352 8.71757
289 7 6.33498 8.84525 10.4853
285 6 6.35494 8.6349 11.8372
103 6 3.77618 5.06003 8.89748
543 6 4.24064 6.8382 13.0633
204 6 8.09289 6.72073 14.5071
5 2 6.47934 7.5538 13.6686
550 7 3.80958 8.08483 13.6575
546 6 6.75117 8.95253 15.2894
47 5 3.64947 5.38644 23.5855
322 6 4.375 7.27804 23.8724
224 7 4.72476 3.37105 22.6921
220 6 5.30157 4.61245 22.8109
329 7 3.7272 7.3304 25.0539
246 6 3.95608 2.7267 26.7348
257 6 4.74325 12.6211 3.61182
264 7 3.5696 12.9727 4.25377
286 6 5.37438 9.61409 5.37044
41 4 5.89012 11.0439 3.99833
67 7 9.14933 14.8785 4.15867
65 6 7.90523 11.2582 3.62007
331 7 3.69692 8.98059 2.89388
325 6 4.1505 10.1647 3.13301
294 8 5.99254 9.28477 8.54718
292 7 5.62124 9.59591 6.713
291 7 7.4605 10.5279 8.78333
284 6 8.6611 11.0601 8.74941
60 5 4.38421 13.2973 10.9518
287 6 3.92944 11.9393 9.11088
293 7 4.85554 10.9743 8.80438
553 7 4.43065 10.8697 13.1839
336 6 8.09412 14.255 12.7941
53 5 9.00582 12.175 12.2933
547 6 5.14146 11.4665 12.1336
206 6 9.19284 11.5853 14.3753
554 8 3.58307 9.76368 14.6878
552 7 5.46405 9.15343 15.2345
551 7 3.36544 11.3584 15.9681
544 6 3.7929 12.5461 16.5578
32 4 5.24982 13.9992 16.9081
231 6 6.98165 14.9756 17.4838
440 6 5.49181 13.8064 14.9411
565 7 3.73777 13.6168 19.8142
555 6 3.22706 9.57335 20.6432
559 6 4.11536 14.1433 18.5486
561 7 3.63349 10.9402 20.5812
557 6 6.89732 13.1224 19.9906
564 7 5.81229 12.7416 20.5648
562 7 3.63472 11.6365 23.1404
66 6 7.32367 12.937 23.4736
567 8 3.84327 12.7406 21.4129
566 7 3.82352 14.3372 22.5585
59 5 8.35213 13.9155 21.6464
558 6 3.43812 10.8738 24.3254
73 8 8.54889 14.3401 26.4808
72 7 8.14397 13.57 24.5325
71 7 7.99706 12.4367 27.1535
579 7 6.39422 18.2917 5.16645
256 6 3.24949 16.3997 5.74604
28 4 4.08346 16.687 3.91409
573 6 5.82057 17.8533 3.95634
580 8 6.73993 19.05 7.04577
576 7 4.84812 19.4793 7.75859
578 7 7.02425 17.1474 7.55334
575 7 6.88792 20.854 6.18225
577 7 8.76007 18.7754 6.64196
572 6 7.58913 15.8965 7.90083
574 7 6.97343 20.0653 8.73679
569 6 3.6486 19.595 8.36697
439 6 5.05173 19.2562 11.0618
448 7 5.46384 15.4897 11.39
446 7 4.87032 18.1136 11.6839
55 5 4.72188 20.9288 9.53876
442 6 5.85681 15.0202 10.2644
449 7 6.6843 17.5127 13.9499
450 8 4.97635 16.6463 13.0479
445 7 4.30966 17.9092 14.6993
447 7 5.01834 15.0195 14.3707
443 6 7.77164 17.7386 14.7323
444 7 3.10388 16.0722 12.2981
56 5 8.96143 19.7575 15.0026
58 5 3.1569 18.8289 17.6029
441 6 3.31734 18.655 15.3908
313 6 4.35395 20.6371 17.0644
240 7 8.62732 19.0067 17.7927
238 7 7.29157 16.0975 18.0459
242 8 7.90829 17.8821 19.2561
235 6 4.55317 18.6893 19.172
241 7 5.91397 18.3316 19.1639
430 6 2.49089 16.9781 18.072
237 7 7.36435 16.8457 20.9093
239 7 8.20462 19.5152 20.6592
232 6 8.76019 20.3515 21.5804
560 6 3.63224 15.5258 23.3631
233 6 7.22335 15.6323 21.4108
62 6 5.3021 15.0889 27.1078
69 7 6.56663 14.8903 26.917
84 7 6.86192 26.7073 4.43044
250 7 3.50314 26.2736 3.65918
78 6 6.7861 27.1146 3.04653
252 7 2.80093 23.4272 3.79249
571 6 6.60326 22.1013 5.59242
245 6 3.38692 22.4669 2.98708
86 8 6.66625 26.1105 6.34608
83 7 8.26357 24.8081 6.5481
243 6 5.36719 24.6948 6.72737
85 7 8.5218 26.8512 6.52338
249 7 4.30544 24.7148 5.89132
274 6 3.02245 22.4434 10.4778
568 6 7.1121 21.0193 9.67045
311 6 4.49454 24.2935 13.792
315 7 5.32394 23.8839 14.7668
310 6 8.71295 21.8467 14.9995
320 8 6.2219 23.3674 16.537
316 7 4.59565 24.3669 17.4739
314 7 7.54528 25.0651 16.646
319 7 5.19072 21.6679 17.17
308 6 8.71075 25.8764 16.7549
317 7 7.60805 22.2775 15.5184
309 6 3.67351 24.7046 18.1821
218 6 6.74569 26.6425 19.8692
31 4 8.28449 25.6551 18.7771
221 6 3.41099 23.4185 20.6376
312 6 7.43693 23.8633 19.4018
318 7 6.99634 23.3012 18.2855
225 7 6.0228 26.4295 20.9599
228 7 5.95074 25.3953 23.9756
229 8 4.60676 25.9663 22.3682
226 7 3.59375 25.6726 23.9935
227 7 4.01341 24.2431 21.443
223 7 2.97678 26.527 21.0992
222 6 6.2649 24.4328 24.9999
2 1 4.54393 24.5137 25.9524
521 6 11.0679 8.73721 8.29759
93 7 11.3818 4.35636 7.74746
87 6 11.0648 4.92666 6.50438
23 4 9.06242 4.70718 7.00285
94 7 13.8233 3.48517 8.23526
89 6 13.3514 6.77546 10.4378
97 7 10.9862 5.2972 10.2434
91 6 9.85129 6.19109 10.4158
99 8 12.1682 3.78814 9.42057
21 4 11.4039 8.0191 10.3754
98 7 12.7086 3.02506 11.246
96 7 12.9562 5.52712 10.0457
216 8 10.8519 8.46398 14.4221
210 7 9.13853 7.51598 14.301
205 6 13.1898 5.76842 13.9389
212 7 12.1576 6.66602 14.3482
211 7 10.6462 8.9655 12.5045
379 7 13.2736 3.63719 16.5901
35 4 10.7696 6.32434 17.7967
214 7 10.8547 8.26289 16.3761
208 6 10.6278 8.16929 17.764
381 7 10.4711 4.17964 17.513
374 6 9.46334 4.81199 17.3267
385 8 12.1312 2.90425 18.0924
373 6 14.1041 4.00886 15.6585
377 6 11.7139 5.75378 19.661
383 7 11.9276 4.79862 18.7661
400 6 14.6807 6.88271 22.975
17 4 14.2241 8.85831 23.4026
49 5 12.6592 13.4559 4.66691
63 6 11.4759 13.2322 2.73323
520 6 11.504 14.0328 6.3758
527 7 11.7078 9.92186 8.5224
526 7 11.9768 13.1052 7.3243
524 7 14.3476 11.3087 7.69332
528 8 12.7227 11.6952 8.83966
127 6 14.2648 13.689 6.27231
525 7 11.1009 12.3291 9.92217
522 7 13.9212 13.0789 9.70347
523 7 13.4678 10.638 10.4829
519 6 13.8262 10.0802 11.6785
518 6 9.95364 12.8271 10.3256
516 6 14.3336 14.1129 10.5274
207 6 10.5305 9.38998 11.1599
7 3 13.7027 11.4834 12.9784
337 6 11.9085 12.1915 12.5965
341 7 11.7401 13.5743 12.7989
215 7 12.5526 9.71649 14.4396
468 6 14.6468 13.1794 13.4599
213 7 9.82663 10.4076 14.5947
343 7 9.23277 14.8693 13.139
209 6 13.7685 10.1953 15.0237
488 7 13.1269 12.8439 19.9208
482 6 12.8826 13.1227 18.5966
479 6 13.8559 9.65565 21.7631
489 8 13.6306 13.0286 21.7722
486 7 13.4872 10.948 21.8703
483 7 14.3132 13.3562 23.6461
487 7 11.7256 12.7743 22.4015
481 6 10.3733 12.4655 22.5773
485 7 13.7326 14.8746 21.1848
70 7 10.2966 13.7157 26.4414
495 6 13.9196 10.0818 24.8473
477 6 14.7189 13.6939 24.894
126 6 13.1606 18.8348 5.80457
61 6 9.74496 15.5986 5.20157
455 6 11.8352 16.9103 3.1031
51 5 11.2964 19.0185 4.68708
570 6 10.1314 18.5242 6.39674
44 5 9.87007 16.302 7.64802
132 7 14.3727 18.1525 6.01376
339 6 10.8019 16.0513 9.73418
345 7 10.8144 15.7131 11.0351
130 6 14.5397 16.4529 9.32294
335 6 14.4222 16.0974 12.4718
338 6 10.912 18.8348 13.575
342 7 13.1221 15.9489 12.7434
344 7 10.8149 17.5584 13.0277
346 8 11.2895 15.5426 13.1086
175 7 14.5183 19.7609 14.8243
33 4 14.8873 16.9855 14.0577
334 6 12.262 15.5484 16.5143
469 6 14.8519 16.2667 17.5679
169 6 14.0438 18.4398 15.1103
234 6 9.48461 19.7737 17.0244
340 7 11.8914 15.6111 15.1676
230 6 10.9533 16.3764 19.6503
236 7 9.71651 17.1025 19.6378
50 5 12.9472 15.3427 18.7492
478 6 13.4738 16.0711 20.6008
451 6 11.4507 17.3243 22.6586
457 7 12.3616 17.7343 23.5037
45 5 9.93224 19.2277 23.981
458 7 14.3036 20.1442 23.965
461 7 12.6539 17.6637 26.5685
462 7 14.6913 19.6083 25.9017
64 6 9.38469 17.6081 25.6366
68 7 9.10765 16.2463 25.8692
460 7 12.0178 19.6855 25.2329
453 6 10.8549 20.3289 25.357
463 8 13.7066 18.2913 24.82
456 6 15.0576 20.5684 26.8453
160 7 11.9682 25.0543 4.02578
164 8 13.3291 23.5933 4.68166
158 7 11.9476 22.3116 4.7406
153 6 11.8346 26.1716 3.23824
163 7 14.7039 25.2353 4.96501
161 7 15.0154 22.5339 5.44306
152 6 11.2835 21.257 4.25138
25 4 10.1868 24.7953 7.464
155 6 11.8216 23.7455 7.79638
159 7 12.4127 23.8268 6.57576
79 6 9.89234 26.7102 6.34628
90 6 14.6057 27.2344 7.11312
76 6 8.86594 23.5391 6.59821
95 7 11.1436 26.493 9.13526
88 6 10.1767 25.5894 9.31024
173 7 13.7862 22.4055 14.351
166 6 12.9641 23.504 14.6594
92 6 12.9474 27.1273 12.5703
380 7 11.9557 25.2054 17.4586
376 6 11.6614 23.9044 17.4559
24 4 13.3994 23.8402 16.508
378 6 9.60092 26.0943 20.2246
384 7 10.5849 26.5149 19.3809
382 7 13.7799 26.6613 19.1762
375 6 14.8595 26.0528 19.9666
454 6 14.9232 21.2073 23.4269
162 7 14.1437 23.3624 26.9577
156 6 14.8147 23.7178 25.8341
9 3 14.7326 21.8795 25.1486
191 6 18.7154 7.83107 6.71798
198 7 15.9378 6.94617 8.04776
197 7 18.3278 7.15615 7.84098
200 7 17.6621 4.52953 8.86988
193 6 17.9814 3.31476 8.34688
194 6 15.3922 7.50019 6.99134
202 7 16.4715 5.86079 11.0724
201 7 18.9224 6.48739 10.7883
203 8 17.4717 6.55559 9.40511
199 7 17.0439 8.34731 9.79371
393 7 18.7845 3.01534 15.0835
6 3 20.4826 4.26863 12.8836
389 6 19.4296 4.16954 14.8889
196 6 16.3434 5.25233 12.2454
38 4 14.9994 4.39377 13.7791
397 7 17.0383 3.24652 14.7218
195 6 19.6066 6.06429 11.9925
8 3 17.8331 3.72033 16.9466
150 7 20.5052 3.72388 17.356
144 6 19.4339 4.33398 17.9248
391 6 16.7573 4.56761 15.3386
410 7 16.7716 5.00278 19.7281
401 6 19.7847 7.25884 18.7038
408 7 18.7906 6.83812 19.6013
411 8 17.1625 6.65327 20.8856
406 7 16.359 8.14573 19.8146
37 4 21.0138 5.9456 19.4058
404 6 16.4441 4.05337 18.7848
409 7 18.2938 5.55107 22.2483
403 6 18.9365 4.81131 23.0875
405 7 17.3847 8.57754 21.4506
407 7 15.7325 6.68179 22.2451
362 6 20.8672 6.81165 21.3109
492 6 18.7441 7.42794 25.505
499 7 18.2244 8.62493 25.5745
10 3 19.9555 6.0549 24.3
491 6 16.111 13.5454 3.16496
500 7 17.1725 9.55013 3.69645
494 6 17.0016 9.2412 5.08151
1 1 20.0977 15.0793 6.75953
517 6 15.4336 10.9677 6.91007
27 4 16.4968 9.14092 7.24283
131 6 18.2414 14.4163 6.87064
534 6 20.0914 14.2341 9.07521
192 6 16.5037 9.6218 9.85849
540 7 20.5854 14.9055 10.2089
538 7 20.672 14.4988 13.2896
531 6 20.7338 13.4996 14.2307
474 7 15.4521 13.4415 14.6569
464 6 18.9538 11.7144 14.7884
472 7 16.7184 12.6128 17.304
476 8 16.8895 14.1483 15.9878
470 7 18.2206 12.8141 15.2237
54 5 20.7789 11.2324 15.6541
471 7 18.4584 14.7533 17.255
363 6 18.8921 11.0286 19.6829
13 4 16.9695 10.6883 19.8491
367 7 19.9675 10.2561 20.1011
480 6 16.7049 12.7987 20.5701
402 6 15.7492 9.2103 19.2373
484 7 15.4098 12.9074 20.8256
465 6 16.7074 11.3385 17.8519
493 6 18.6 12.1833 23.5768
399 6 17.3381 9.87982 21.6671
180 6 20.7294 13.4411 22.4279
496 7 19.2185 10.7219 26.4565
498 7 16.2216 12.286 26.8875
18 4 20.5925 11.5912 24.6405
497 7 17.9006 11.5516 24.5785
502 8 17.1919 10.4623 26.0908
181 6 18.6457 14.1759 25.7885
501 7 15.1958 10.1002 25.3468
46 5 16.5501 14.8287 25.8191
490 6 20.5786 10.844 26.595
185 7 19.8722 14.6931 25.2969
133 7 16.2811 17.1299 4.41152
11 3 17.7479 20.9142 5.55358
355 7 20.5019 16.2892 5.11795
354 7 20.8965 18.9384 5.10355
129 6 16.2699 17.0802 3.05252
348 6 19.5409 15.3713 4.71261
350 6 19.8326 19.8346 5.6385
137 7 17.421 15.5424 6.66333
4 1 20.6758 19.554 7.77874
138 8 15.9758 16.7943 6.42813
128 6 17.6458 19.7252 7.19612
136 7 15.3399 16.7571 8.25934
347 6 20.5559 17.0493 7.74718
135 7 17.0288 18.5999 6.75809
134 7 14.8819 14.9739 6.46884
16 4 15.8934 15.1604 10.1931
530 6 19.6495 18.5479 9.70551
537 7 20.1603 17.5958 10.5986
170 6 15.6975 20.132 11.3008
539 7 18.5281 15.6331 11.7305
533 6 17.1796 15.6414 11.6908
174 7 17.4075 20.6347 14.477
541 8 20.4989 16.069 11.9447
176 7 15.7512 20.7656 12.499
466 6 16.7511 17.1613 14.6037
529 6 20.4212 18.3581 14.7002
167 6 18.5568 20.013 14.4394
535 7 20.2411 17.4146 13.56
29 4 20.4618 20.6657 14.1905
473 7 16.9752 15.9054 14.9217
475 7 15.6299 15.2857 16.9537
48 5 20.4354 17.0913 16.4587
467 6 19.7606 15.2228 17.4642
298 6 20.2374 18.6121 18.6464
178 6 20.2059 18.0579 22.8833
184 7 20.6425 17.0767 23.8004
459 7 15.4532 16.8673 24.417
452 6 16.5396 16.0945 24.4031
513 7 21.13 24.6237 3.91139
512 7 19.3062 22.2141 4.3308
157 6 15.6627 26.321 4.73967
505 6 18.391 21.3721 3.82407
515 8 20.5739 23.5378 5.45173
154 6 16.1691 22.0894 5.96119
510 7 20.2534 22.1992 6.94652
503 6 17.8743 24.8448 6.53573
14 4 16.3112 26.1188 6.93035
509 7 19.0213 24.5396 5.81684
506 6 19.9353 21.5161 8.16284
398 8 17.723 25.6373 14.385
168 6 17.0042 24.3869 13.1285
388 6 20.017 26.6281 12.1612
395 7 19.1419 26.2337 13.1386
177 8 15.6549 21.5335 14.1559
172 7 16.7162 23.2123 13.7337
387 6 19.0748 25.704 17.5426
3 1 20.2684 23.9877 17.152
165 6 14.9642 22.8382 17.0921
171 7 15.4997 22.227 15.9851
394 7 18.6212 25.637 16.2282
396 7 15.8361 25.5059 15.2902
390 6 14.8536 25.5352 16.2616
386 6 19.7422 22.7409 15.4888
392 7 19.0889 23.9441 15.2346
295 6 20.5571 22.9738 18.8408
330 7 26.5266 6.95049 4.6447
323 6 26.0952 6.52478 5.86121
102 6 24.3845 6.14046 8.00899
36 4 24.8927 7.82476 8.81374
244 6 26.5411 3.48221 7.186
112 8 25.1994 4.77689 10.8364
110 7 23.2323 4.70528 11.4393
111 7 25.3811 6.80766 11.433
104 6 21.9941 4.30829 11.4512
107 7 26.9256 4.95363 9.76376
105 6 25.1787 8.18426 11.1179
106 7 24.9622 2.78994 10.0574
109 7 24.8736 5.55366 9.04025
143 6 22.2393 4.37443 13.8768
108 7 25.8243 3.90353 12.6251
149 7 22.3045 3.9397 15.2009
151 8 22.2529 3.06075 16.9969
542 6 26.3082 8.26959 17.4048
548 7 26.9759 8.84116 16.4127
148 7 22.7412 4.68608 17.929
369 7 21.4715 7.98837 20.8306
117 6 21.6617 4.29989 20.253
141 6 23.3617 5.84771 18.5314
123 7 22.3414 3.82986 21.3732
124 7 24.9213 4.02168 22.5783
118 6 26.3045 4.27498 22.4546
324 6 25.6528 4.84258 25.2788
332 7 25.5838 8.18137 25.9093
328 7 26.5256 5.31397 26.2963
114 6 21.5215 4.83334 24.8138
333 8 27.1941 7.14661 26.8461
326 6 24.5218 8.75068 25.3906
121 7 22.2617 3.99447 24.0885
265 7 24.1073 14.6359 4.32284
263 7 25.1612 12.0771 3.43218
268 8 25.8322 13.7449 4.38447
413 6 21.6029 13.3567 7.24573
420 7 22.4343 12.9207 8.22421
422 7 25.1388 12.8412 7.50032
416 6 25.7255 13.0304 6.29739
424 8 24.1459 12.7673 9.39911
419 7 23.2218 12.7335 11.3366
423 7 24.2104 14.6712 9.76037
421 7 25.6564 12.6982 10.527
414 6 26.5977 12.6644 11.5425
418 7 23.7115 10.7066 9.34381
412 6 23.5664 9.44226 8.9792
545 6 25.0168 10.9309 13.7609
42 4 25.0624 12.9476 13.2068
549 7 26.1529 10.4939 14.1325
428 6 26.0706 14.0328 14.475
415 6 23.1283 12.7231 12.7408
425 6 22.4619 11.993 16.9399
360 6 21.3323 9.48749 16.8311
431 7 23.1085 13.2536 17.0479
437 8 24.4633 14.5652 17.4156
432 7 25.2357 14.152 15.6021
368 7 22.5925 11.6205 20.0405
370 7 23.8128 9.48368 20.3598
34 4 25.987 9.57299 18.985
372 8 21.8621 9.75804 20.2276
364 6 25.1192 9.3961 20.7042
361 6 22.6824 12.869 19.7722
426 6 26.1756 11.8545 18.6748
433 7 25.6652 12.9936 18.0218
366 7 21.8224 9.28436 18.1077
563 7 26.0463 13.0046 21.9601
19 4 22.6524 13.8854 21.4853
365 6 21.826 10.4389 23.6434
371 7 21.7308 10.3813 22.2678
187 7 21.1627 14.6232 22.9801
556 6 24.782 13.3999 22.3022
183 6 22.7553 12.6441 25.27
189 7 22.296 13.9653 25.0945
267 7 25.7654 13.7415 26.5286
57 5 25.8147 10.9407 25.2284
261 6 25.76 13.5585 25.1436
259 6 24.7339 10.8247 27.3297
358 7 23.8976 18.2358 4.95749
262 7 26.6522 15.5232 5.17661
359 8 22.0836 17.2589 4.65204
179 6 22.0374 17.6327 2.76052
258 6 22.9046 15.3177 4.04496
352 6 25.0631 18.8907 4.76211
266 7 26.4838 15.5013 3.3037
349 6 22.8042 19.1342 7.56955
351 6 24.1739 16.1604 7.33861
357 7 23.3112 16.657 6.36032
20 4 24.5345 18.1463 7.15483
356 7 22.4076 18.5956 6.45987
353 7 20.9668 16.807 6.4836
52 5 24.9591 17.9135 11.7302
273 6 25.0905 18.6117 9.1673
417 6 24.079 16.0069 10.1942
279 7 24.7042 19.6812 10.0203
275 7 22.4686 20.822 11.7379
269 6 21.2974 20.5251 12.4162
278 7 25.3713 20.2257 12.536
271 6 25.9338 19.604 13.6364
536 7 22.458 16.9277 12.197
438 6 26.1227 15.9317 11.8988
532 6 23.2737 17.7721 12.9064
297 6 22.4979 20.6781 14.845
436 7 25.8083 15.9956 17.7593
434 7 23.1408 15.744 16.5659
304 7 22.398 20.4751 16.1821
427 6 22.16 16.2222 15.6265
300 6 25.1867 18.8682 17.5629
429 6 23.2064 15.5158 20.4879
435 7 23.8325 15.0372 19.2946
306 7 24.0977 19.5827 18.0059
307 8 22.8927 20.753 18.1688
302 7 21.3897 19.3868 18.4493
182 6 24.7309 16.3743 23.7988
186 7 21.8059 16.529 26.2772
12 3 26.3638 15.3498 24.6727
260 6 26.7252 16.5995 26.7426
190 8 21.4878 15.6679 24.6287
188 7 23.3855 16.3224 24.2304
255 8 26.7428 25.1264 5.01957
254 7 25.0387 25.7208 4.05994
514 7 22.2657 22.7887 4.56824
508 6 23.5763 23.0995 4.10957
248 6 23.7938 26.2125 3.93225
251 7 26.5774 26.6525 6.22258
30 4 23.1435 24.6601 2.85818
40 4 24.1605 24.4737 8.42861
511 7 21.7121 24.6681 6.56472
247 6 25.4005 23.3119 7.57045
504 6 22.7263 25.2195 7.23291
253 7 25.7085 24.1322 6.56865
270 6 22.632 22.9465 8.5781
281 8 24.2625 21.3226 11.1733
277 7 23.5088 22.2854 9.4458
280 7 26.1394 21.7823 10.6164
100 6 25.1038 26.1125 9.13706
39 4 25.797 25.0808 14.2856
272 6 24.4762 24.071 13.051
276 7 23.9605 22.9219 12.2569
101 6 26.4657 27.1883 13.3842
145 7 24.2797 26.7357 16.3568
147 7 21.8234 25.7442 16.1816
139 6 25.5697 26.2097 15.9693
140 6 21.6366 24.66 15.5931
299 6 25.0343 23.3638 18.2443
305 7 24.259 22.3437 18.0407
303 7 23.2511 21.198 20.1071
142 6 21.565 25.5652 19.7577
301 7 21.5486 22.2068 18.4428
22 4 26.2554 24.6906 19.341
146 7 21.9349 26.3479 18.6767
115 6 24.2226 24.5683 20.734
217 6 26.5928 26.5425 19.892
43 4 22.347 23.743 20.965
122 7 24.1138 25.7079 21.4245
125 8 23.3962 27.0894 22.9284
296 6 22.991 21.9286 21.1947
119 7 22.0943 25.58 22.7022
113 6 21.3481 24.4309 22.578
219 6 26.9823 24.9593 24.8457
116 6 24.5315 25.3336 25.4196
120 7 24.0522 26.0779 24.4095
507 6 21.4871 25.6609 27.3286
ITEM: TIMESTEP
20000
ITEM: NUMBER OF ATOMS
580
ITEM: BOX BOUNDS xy xz yz pp pp pp
3.4325507455564921e+00 2.6567449254443563e+01 0.0000000000000000e+00
3.4325507455564921e+00 2.6567449254443563e+01 0.0000000000000000e+00
3.4325507455564921e+00 2.6567449254443563e+01 0.0000000000000000e+00
ITEM: ATOMS id type x y z
331 7 4.75508 8.42168 4.54416
330 7 4.21373 5.98033 6.15491
246 6 5.0406 3.46978 4.43597
323 6 4.81553 5.02679 7.00187
15 4 5.77648 4.31727 8.58004
288 7 7.10074 8.49727 8.24713
282 6 7.16271 8.12025 6.91654
107 7 3.95582 5.49865 10.4834
289 7 6.27422 7.96778 11.6335
103 6 5.01148 5.74578 9.7268
294 8 6.32907 9.20811 10.0646
91 6 7.96552 4.74234 9.55618
97 7 9.38003 4.71932 9.52886
290 7 4.36169 8.55204 9.56903
5 2 7.67338 6.32089 13.7525
204 6 8.97516 8.0315 14.2652
374 6 7.95813 4.32009 14.3293
381 7 9.2562 3.96427 14.6148
285 6 6.46878 6.97786 12.5566
550 7 5.88743 7.76438 15.7025
548 7 4.40485 8.76219 17.9815
543 6 6.25141 6.6917 15.0736
552 7 7.20352 9.2483 17.7842
542 6 3.51142 7.82045 18.4219
546 6 8.47627 8.75875 18.0806
223 7 4.96789 4.34709 22.6388
217 6 4.81843 5.56966 21.9849
220 6 7.52842 3.49817 25.3948
321 6 5.0881 6.39042 24.9171
327 7 4.2881 6.19498 26.0362
71 7 8.92193 11.3572 4.08433
41 4 6.73761 9.82718 5.89457
65 6 8.37613 10.4138 4.97923
266 7 3.52068 14.8578 4.17386
325 6 5.36066 9.63926 4.34424
62 6 6.97238 14.7766 3.8801
69 7 7.91387 13.9211 3.36297
292 7 5.95169 10.453 8.41084
286 6 5.74012 11.3656 7.26684
256 6 5.00799 14.2537 6.95866
262 7 3.78962 14.1514 6.22666
291 7 7.99466 10.0557 10.3733
293 7 5.25337 10.1947 11.4791
547 6 7.19193 11.5711 14.3486
60 5 8.39423 13.2716 14.9086
287 6 5.07462 11.3112 12.1967
553 7 6.90032 10.6633 15.1903
549 7 4.27589 10.1833 15.5214
554 8 5.62784 9.68227 16.6523
440 6 6.13535 14.9438 15.858
428 6 3.33727 14.2232 15.9744
551 7 5.62084 11.4492 17.1625
32 4 4.84068 14.4548 17.2745
544 6 5.79215 12.7524 17.61
233 6 8.70046 12.7845 19.4838
237 7 8.24868 14.0855 19.6638
565 7 3.81678 12.3845 19.8316
567 8 4.07331 11.5141 21.692
566 7 4.52824 13.3491 22.2428
59 5 8.88712 11.655 21.3184
564 7 5.89274 10.8385 21.6616
560 6 4.94707 14.507 22.8294
562 7 4.32851 10.5348 23.4695
557 6 7.13468 10.3049 21.3986
72 7 8.85605 12.2384 24.6028
558 6 4.47326 9.91882 24.6762
12 3 4.14999 14.7962 24.6724
261 6 3.61334 12.4869 25.3694
66 6 8.43159 11.6753 23.5151
28 4 5.60351 15.2775 5.24608
573 6 5.08539 17.092 5.58879
575 7 7.92412 20.2527 5.77414
260 6 4.5907 15.377 3.47242
579 7 6.37372 17.5257 5.70185
577 7 8.86248 17.596 5.21348
572 6 8.64725 15.4034 8.3783
576 7 6.85071 19.0051 8.23365
578 7 8.39214 16.5971 7.63648
580 8 7.9625 18.3348 6.67524
569 6 6.37004 19.5927 9.4748
439 6 3.64119 18.3455 10.9679
55 5 4.6265 20.2875 10.658
446 7 4.33122 17.8182 11.98
442 6 7.51912 15.6587 11.3705
450 8 5.04075 16.7272 13.3792
443 6 7.98055 18.6304 13.0686
449 7 6.94329 17.9167 13.4362
445 7 4.05764 17.8057 14.7697
447 7 5.70638 15.5066 14.7644
448 7 6.31787 15.6453 12.1134
238 7 8.35606 15.2454 17.1111
56 5 8.60666 19.66 15.0993
313 6 4.67666 19.6797 17.6143
234 6 8.70784 18.7459 17.3043
231 6 8.92545 15.0564 15.8205
242 8 8.47834 15.7992 19.0511
240 7 8.60223 17.7149 18.1479
241 7 6.43112 16.0125 18.6632
235 6 5.00117 15.9928 18.7804
232 6 7.71013 16.7848 22.2029
239 7 8.12571 16.4065 21.03
84 7 7.46647 23.9044 4.47616
74 6 8.90574 26.2148 4.03317
250 7 4.72352 25.7716 5.49552
571 6 7.82992 21.4648 5.40671
86 8 8.5594 23.3057 6.14491
26 4 6.86972 25.9926 4.0101
252 7 3.58468 23.1253 5.17616
80 7 8.97119 25.2877 5.0221
78 6 6.27811 23.7378 3.89265
253 7 3.51299 22.706 7.96648
251 7 4.71948 25.2685 8.32133
243 6 6.96043 22.933 7.472
249 7 5.72954 23.4108 6.97457
255 8 4.12864 24.2303 6.8102
77 6 7.11489 26.4406 6.82443
247 6 3.46722 21.5423 8.96115
81 7 7.8577 25.3662 6.2242
244 6 5.48393 25.5747 9.54411
274 6 4.12332 21.3246 12.4139
314 7 6.43114 24.7988 16.7783
320 8 5.50763 23.0522 17.1128
315 7 4.33638 23.4672 15.5223
308 6 6.82936 26.1212 16.6815
317 7 6.89233 22.2656 15.9799
319 7 4.79762 21.1035 17.5618
310 6 7.85382 21.8835 15.1068
312 6 7.72475 23.5664 19.4687
31 4 7.55352 25.632 18.6813
318 7 6.77014 23.3571 18.552
218 6 7.42148 25.879 20.66
316 7 3.97436 23.7558 18.2978
225 7 6.41269 25.7007 21.5461
229 8 5.24562 25.6777 23.1601
227 7 3.53487 25.1414 22.2213
228 7 5.55986 23.7716 23.6663
224 7 6.49441 26.0933 24.6612
222 6 5.1962 22.4546 23.9244
226 7 4.0033 25.219 24.6437
2 1 4.33896 22.9997 25.6535
219 6 3.40273 25.1026 25.8528
87 6 10.0494 4.48946 6.26063
89 6 10.9022 8.44834 8.47918
99 8 11.2612 4.97301 9.07827
93 7 10.7279 4.69794 7.34685
96 7 10.9819 7.19841 8.83936
94 7 13.3014 4.85151 8.30829
90 6 14.6485 5.10641 7.81892
98 7 11.6035 5.21971 10.8718
92 6 11.7648 5.98387 11.9743
38 4 13.5042 5.50803 12.8591
212 7 12.8005 8.17701 14.1574
205 6 13.3761 6.86832 14.3129
373 6 13.2574 3.66908 13.4648
379 7 12.0188 3.61859 14.2028
210 7 10.1035 8.7321 13.7751
383 7 10.701 5.25315 16.6049
377 6 10.3081 6.48235 17.2044
385 8 10.8616 3.47367 15.8361
35 4 10.5229 8.46451 17.7703
411 8 14.559 6.42304 20.7298
404 6 12.2352 8.29111 18.7777
410 7 13.1558 7.60273 19.5782
409 7 13.3544 4.83304 21.2907
407 7 13.9393 7.44802 22.412
400 6 13.1468 8.00549 23.4687
403 6 12.7206 3.83404 22.0158
495 6 14.5233 8.71422 26.4626
153 6 11.8033 3.43044 26.2545
17 4 12.7865 9.08253 25.2792
520 6 13.1401 12.9198 4.57538
67 7 10.354 14.189 4.91207
526 7 13.3579 12.91 5.84639
61 6 10.3217 14.8272 6.12525
518 6 10.8163 12.4109 8.71962
528 8 13.8325 12.8323 7.77796
521 6 13.6865 9.35178 7.97295
527 7 13.6998 10.7988 7.71605
525 7 12.1106 12.4891 8.47767
522 7 13.5105 14.8323 8.12004
207 6 12.5907 9.97366 10.4283
519 6 14.9431 12.9109 10.973
523 7 14.4255 12.7275 9.72416
284 6 9.28907 10.279 10.3509
53 5 9.40653 14.8809 10.3474
211 7 12.1287 9.86697 11.7963
21 4 11.0171 10.4343 9.35292
209 6 14.6452 11.9868 13.7658
215 7 13.6009 11.0761 13.7997
206 6 9.87253 12.9394 13.4844
216 8 11.7862 9.99945 13.7932
213 7 10.5128 11.7236 13.5789
214 7 11.4464 10.0697 15.8073
469 6 13.6842 14.5753 17.9525
208 6 11.2722 10.4985 17.0862
482 6 10.7917 11.0682 19.8068
488 7 11.9265 11.5387 20.5424
487 7 11.2898 13.582 22.3325
489 8 12.9809 12.5886 21.9518
486 7 12.1582 11.1966 22.9439
481 6 9.97773 14.3045 22.359
479 6 11.4062 10.1444 23.3778
485 7 13.658 14.336 21.2499
484 7 14.7388 11.9024 21.5549
483 7 13.7339 13.3814 23.6617
73 8 9.66365 13.0277 26.3972
63 6 12.1914 10.8579 25.9178
477 6 14.2674 13.6689 24.8018
70 7 11.1813 11.8574 26.1186
68 7 9.99535 14.836 25.3487
44 5 11.6863 17.0144 5.6783
134 7 14.3068 16.3832 4.03623
570 6 9.74513 17.5979 4.13058
126 6 13.0605 19.8777 4.94884
132 7 13.9875 19.0671 4.54658
127 6 13.1821 15.6842 4.19419
574 7 9.64793 18.9412 7.54102
516 6 13.1173 16.1958 8.26439
568 6 10.9953 18.5891 7.69028
169 6 14.4934 19.6015 8.81862
16 4 14.1102 17.5568 9.07768
339 6 13.294 18.4459 10.7388
175 7 14.6723 20.8269 9.41511
345 7 13.0593 17.9836 12.0094
346 8 12.755 17.311 13.8629
344 7 11.3469 18.5725 14.1575
338 6 10.5987 19.7454 14.7113
341 7 14.3191 15.8637 13.603
343 7 11.2568 16.246 12.8047
342 7 13.9995 18.52 14.6804
336 6 10.4113 15.4359 12.1368
334 6 11.8216 16.2033 16.8682
340 7 12.3573 16.613 15.7696
335 6 14.6025 19.5677 15.484
459 7 12.7741 19.3617 19.69
230 6 11.6097 15.8966 20.1837
50 5 13.135 16.3665 18.4543
452 6 12.2759 18.6302 18.7048
236 7 10.3645 15.5626 19.7196
478 6 14.3802 15.3287 20.5955
460 7 13.7733 20.339 23.6814
457 7 11.3198 19.8032 22.1174
45 5 10.0119 16.5924 22.8368
461 7 13.3461 18.1288 22.2029
463 8 13.3859 20.0076 21.7047
455 6 13.517 16.8394 22.4722
451 6 10.1235 19.1784 22.4439
64 6 10.7047 16.021 25.0211
453 6 14.3151 20.2598 24.9638
82 7 10.2742 23.2108 4.96326
159 7 14.4265 23.8186 4.68461
23 4 10.954 26.1784 4.92402
155 6 14.1832 22.4907 4.98367
75 6 11.3239 22.7578 4.1429
85 7 10.1185 24.4178 6.29604
25 4 11.7897 24.0166 8.37366
83 7 9.94779 22.8982 7.53876
76 6 10.864 22.1381 8.17739
170 6 13.6191 24.5374 8.50296
79 6 11.2484 25.1517 6.51413
173 7 12.9477 22.2072 11.3478
177 8 14.8138 22.2846 10.7336
88 6 11.4296 24.934 10.2574
166 6 11.6682 22.1812 11.6811
95 7 11.4429 26.1619 9.57169
176 7 14.2916 23.7637 9.29616
24 4 11.8064 22.2149 13.6755
396 7 14.761 23.1903 14.7406
390 6 13.7087 22.3982 14.4685
376 6 10.5702 23.625 14.2613
380 7 10.7856 24.6891 14.9938
384 7 10.025 25.9961 17.556
382 7 12.5739 26.1476 16.819
375 6 13.5608 25.8044 17.7013
378 6 9.61302 25.3727 18.8116
454 6 13.5389 23.3585 20.7072
9 3 13.3387 24.9161 22.0419
458 7 13.4775 21.9261 21.0597
152 6 13.9379 23.6273 23.8146
51 5 13.2944 21.3351 26.5369
158 7 14.3289 23.7745 25.0164
164 8 14.7733 25.0662 26.4918
160 7 13.0672 26.0404 26.3399
157 6 16.0024 3.7964 5.85352
193 6 17.7241 5.82741 7.57247
14 4 16.4806 4.42348 7.6228
200 7 17.6486 6.65117 8.66208
197 7 19.0485 8.9805 8.86859
203 8 17.6363 8.05685 9.9898
201 7 18.5525 6.74464 11.3318
202 7 16.4026 6.84534 11.2342
196 6 15.5842 5.85481 11.6027
6 3 20.1897 5.08075 13.2597
195 6 18.6963 5.85647 12.3065
391 6 15.1784 4.2864 15.2309
143 6 19.8587 4.9519 15.3731
360 6 19.6421 7.42716 18.9506
37 4 18.8671 6.57903 20.5337
408 7 15.2439 5.2864 19.1742
406 7 16.0479 7.5575 20.1338
402 6 17.2285 8.2669 19.8593
150 7 20.5424 4.81531 19.1792
144 6 19.5118 4.59526 20.1019
401 6 16.1818 4.74936 18.3709
366 7 20.3976 8.20767 19.8584
405 7 16.0162 5.72017 21.6956
399 6 17.2557 5.48221 22.2512
369 7 20.2983 7.79498 22.0918
362 6 19.1511 6.99683 22.6926
492 6 18.053 6.21952 25.9097
499 7 17.9416 7.52014 25.6519
156 6 16.4332 3.92344 24.334
10 3 17.9216 5.23572 24.0697
501 7 15.5836 9.13563 25.8792
114 6 19.6147 4.21547 24.2117
500 7 17.6121 10.0152 4.56845
494 6 18.3232 10.3043 5.74886
49 5 15.1402 13.5607 4.00461
517 6 16.2788 13.6865 5.83738
413 6 19.3033 12.5348 8.82201
420 7 20.7154 12.1829 8.76697
27 4 18.6813 11.1198 7.52032
524 7 15.3361 13.3002 6.68452
191 6 19.9801 9.43751 7.93846
194 6 16.4884 10.8912 8.15001
534 6 18.829 15.0061 8.43682
198 7 16.849 9.61216 8.50315
199 7 18.0038 9.5038 11.5614
7 3 15.473 13.5749 12.7433
54 5 19.3952 12.1176 13.9274
468 6 17.1563 12.8141 14.9675
192 6 18.4356 10.6407 12.2456
531 6 17.5012 13.8103 12.5677
474 7 17.3166 13.8712 15.9415
476 8 17.2784 14.8539 17.6817
475 7 15.0592 14.7898 17.7889
429 6 20.234 11.5103 16.2039
465 6 17.2386 11.6395 18.4022
472 7 17.2473 13.0708 18.4399
13 4 17.1119 10.4422 20.4785
363 6 19.0561 11.4414 20.9383
480 6 16.0008 11.7482 21.462
367 7 20.0249 10.4895 21.2623
493 6 16.8765 9.52596 22.2662
497 7 17.2662 9.7798 23.5515
498 7 17.0603 11.5265 25.6475
496 7 19.4224 10.3063 25.4054
490 6 20.7366 10.5336 25.8138
502 8 17.5053 9.59693 25.7183
491 6 16.7136 12.8254 25.6218
137 7 17.3711 16.6935 4.6789
131 6 18.2057 15.6474 4.7846
138 8 15.6886 17.9581 4.46172
135 7 16.9938 19.4987 4.97307
353 7 20.536 18.0771 5.81005
128 6 18.0688 20.35 4.51381
4 1 20.0326 19.8446 6.9692
130 6 15.4724 16.9196 7.66629
347 6 19.4509 17.8598 6.6336
1 1 19.5364 15.653 6.85843
136 7 15.5094 17.575 6.45705
537 7 19.0241 18.43 10.4653
539 7 16.5005 16.7207 10.5284
533 6 15.1012 16.4347 10.2855
536 7 20.3925 16.6238 11.3295
541 8 18.4133 16.7468 11.1644
530 6 19.6173 19.4587 9.76316
540 7 18.7594 15.8136 9.47302
29 4 18.6855 20.7397 11.4954
538 7 17.9828 14.9535 12.0708
529 6 18.3093 19.008 13.6653
535 7 18.3842 17.7086 12.8805
165 6 15.7814 19.6127 12.8323
337 6 15.585 15.4267 13.9135
33 4 16.5243 19.1454 14.6766
466 6 16.4705 17.8335 16.286
473 7 17.1605 16.6222 16.7122
48 5 19.7052 16.5211 19.8261
298 6 19.1626 18.1508 18.4234
464 6 20.3661 15.3779 18.1656
471 7 17.1938 15.6162 19.4526
302 7 20.2081 19.0085 18.8071
467 6 17.7836 16.0746 20.6017
470 7 19.1562 15.0525 17.7776
181 6 19.7513 16.7937 21.8434
456 6 16.2947 18.7423 21.1159
462 7 15.1244 19.3467 21.2582
46 5 15.9719 16.4326 22.3057
133 7 16.085 18.0146 25.6104
129 6 16.4505 17.7518 24.3384
505 6 19.8624 24.468 4.20802
163 7 15.4099 26.1725 4.95303
512 7 19.7979 24.2753 5.52871
350 6 20.5379 20.9021 5.00976
11 3 19.4495 22.6508 3.42461
510 7 19.2532 22.5875 7.53018
506 6 18.8068 21.2867 7.27885
509 7 18.3489 25.201 7.76406
515 8 20.0167 24.3776 7.55333
503 6 17.1345 25.607 8.2764
174 7 16.6934 22.0676 10.1369
172 7 15.2467 23.937 11.8338
167 6 17.9317 21.6938 9.81649
511 7 20.4897 24.3981 9.56034
171 7 15.3461 20.7275 12.0991
398 8 16.4684 24.2649 14.3555
392 7 17.2775 22.6144 13.6171
168 6 16.0724 24.981 12.3647
395 7 18.2162 25.3865 14.2114
388 6 19.3779 25.9246 13.8012
386 6 17.6322 21.389 13.0833
269 6 20.5307 21.0027 12.1862
387 6 17.6413 22.3146 16.8068
3 1 19.4775 22.8771 17.4053
393 7 16.3755 24.9972 16.3535
8 3 15.279 26.5611 17.0576