580
Atoms. Timestep: 10000
Mn 20.0977 15.0793 6.75953
Mn 4.54393 24.5137 25.9524
Mn 20.2684 23.9877 17.152
Mn 20.6758 19.554 7.77874
Fe 6.47934 7.5538 13.6686
Co 20.4826 4.26863 12.8836
Co 13.7027 11.4834 12.9784
Co 17.8331 3.72033 16.9466
Co 14.7326 21.8795 25.1486
Co 19.9555 6.0549 24.3
Co 17.7479 20.9142 5.55358
Co 26.3638 15.3498 24.6727
Ni 16.9695 10.6883 19.8491
Ni 16.3112 26.1188 6.93035
Ni 3.25937 5.40751 7.00218
Ni 15.8934 15.1604 10.1931
Ni 14.2241 8.85831 23.4026
Ni 20.5925 11.5912 24.6405
Ni 22.6524 13.8854 21.4853
Ni 24.5345 18.1463 7.15483
Ni 11.4039 8.0191 10.3754
Ni 26.2554 24.6906 19.341
Ni 9.06242 4.70718 7.00285
Ni 13.3994 23.8402 16.508
Ni 10.1868 24.7953 7.464
Ni 6.32843 4.45581 4.05254
Ni 16.4968 9.14092 7.24283
Ni 4.08346 16.687 3.91409
Ni 20.4618 20.6657 14.1905
Ni 23.1435 24.6601 2.85818
Ni 8.28449 25.6551 18.7771
Ni 5.24982 13.9992 16.9081
Ni 14.8873 16.9855 14.0577
Ni 25.987 9.57299 18.985
Ni 10.7696 6.32434 17.7967
Ni 24.8927 7.82476 8.81374
Ni 21.0138 5.9456 19.4058
Ni 14.9994 4.39377 13.7791
Ni 25.797 25.0808 14.2856
Ni 24.1605 24.4737 8.42861
Ni 5.89012 11.0439 3.99833
Ni 25.0624 12.9476 13.2068
Ni 22.347 23.743 20.965
Zn 9.87007 16.302 7.64802
Zn 9.93224 19.2277 23.981
Zn 16.5501 14.8287 25.8191
Zn 3.64947 5.38644 23.5855
Zn 20.4354 17.0913 16.4587
Zn 12.6592 13.4559 4.66691
Zn 12.9472 15.3427 18.7492
Zn 11.2964 19.0185 4.68708
Zn 24.9591 17.9135 11.7302
Zn 9.00582 12.175 12.2933
Zn 20.7789 11.2324 15.6541
Zn 4.72188 20.9288 9.53876
Zn 8.96143 19.7575 15.0026
Zn 25.8147 10.9407 25.2284
Zn 3.1569 18.8289 17.6029
Zn 8.35213 13.9155 21.6464
Zn 4.38421 13.2973 10.9518
N 9.74496 15.5986 5.20157
N 5.3021 15.0889 27.1078
N 11.4759 13.2322 2.73323
N 9.38469 17.6081 25.6366
N 7.90523 11.2582 3.62007
N 7.32367 12.937 23.4736
C 9.14933 14.8785 4.15867
C 9.10765 16.2463 25.8692
C 6.56663 14.8903 26.917
C 10.2966 13.7157 26.4414
C 7.99706 12.4367 27.1535
C 8.14397 13.57 24.5325
Co 8.54889 14.3401 26.4808
N 4.74349 4.69857 5.43506
N 8.17957 4.87716 4.97825
N 8.86594 23.5391 6.59821
N 7.89554 4.02352 8.71757
N 6.7861 27.1146 3.04653
N 9.89234 26.7102 6.34628
C 5.32692 3.48971 6.01112
C 7.66591 3.20729 7.6388
C 7.65573 3.66255 5.54005
C 8.26357 24.8081 6.5481
C 6.86192 26.7073 4.43044
C 8.5218 26.8512 6.52338
Co 6.66625 26.1105 6.34608
N 11.0648 4.92666 6.50438
N 10.1767 25.5894 9.31024
N 13.3514 6.77546 10.4378
N 14.6057 27.2344 7.11312
N 9.85129 6.19109 10.4158
N 12.9474 27.1273 12.5703
C 11.3818 4.35636 7.74746
C 13.8233 3.48517 8.23526
C 11.1436 26.493 9.13526
C 12.9562 5.52712 10.0457
C 10.9862 5.2972 10.2434
C 12.7086 3.02506 11.246
Co 12.1682 3.78814 9.42057
N 25.1038 26.1125 9.13706
N 26.4657 27.1883 13.3842
N 24.3845 6.14046 8.00899
N 3.77618 5.06003 8.89748
N 21.9941 4.30829 11.4512
N 25.1787 8.18426 11.1179
C 24.9622 2.78994 10.0574
C 26.9256 4.95363 9.76376
C 25.8243 3.90353 12.6251
C 24.8736 5.55366 9.04025
C 23.2323 4.70528 11.4393
C 25.3811 6.80766 11.433
Co 25.1994 4.77689 10.8364
N 21.3481 24.4309 22.578
N 21.5215 4.83334 24.8138
N 24.2226 24.5683 20.734
N 24.5315 25.3336 25.4196
N 21.6617 4.29989 20.253
N 26.3045 4.27498 22.4546
C 22.0943 25.58 22.7022
C 24.0522 26.0779 24.4095
C 22.2617 3.99447 24.0885
C 24.1138 25.7079 21.4245
C 22.3414 3.82986 21.3732
C 24.9213 4.02168 22.5783
Co 23.3962 27.0894 22.9284
N 13.1606 18.8348 5.80457
N 14.2648 13.689 6.27231
N 17.6458 19.7252 7.19612
N 16.2699 17.0802 3.05252
N 14.5397 16.4529 9.32294
N 18.2414 14.4163 6.87064
C 14.3727 18.1525 6.01376
C 16.2811 17.1299 4.41152
C 14.8819 14.9739 6.46884
C 17.0288 18.5999 6.75809
C 15.3399 16.7571 8.25934
C 17.421 15.5424 6.66333
Co 15.9758 16.7943 6.42813
N 25.5697 26.2097 15.9693
N 21.6366 24.66 15.5931
N 23.3617 5.84771 18.5314
N 21.565 25.5652 19.7577
N 22.2393 4.37443 13.8768
N 19.4339 4.33398 17.9248
C 24.2797 26.7357 16.3568
C 21.9349 26.3479 18.6767
C 21.8234 25.7442 16.1816
C 22.7412 4.68608 17.929
C 22.3045 3.9397 15.2009
C 20.5052 3.72388 17.356
Co 22.2529 3.06075 16.9969
N 11.2835 21.257 4.25138
N 11.8346 26.1716 3.23824
N 16.1691 22.0894 5.96119
N 11.8216 23.7455 7.79638
N 14.8147 23.7178 25.8341
N 15.6627 26.321 4.73967
C 11.9476 22.3116 4.7406
C 12.4127 23.8268 6.57576
C 11.9682 25.0543 4.02578
C 15.0154 22.5339 5.44306
C 14.1437 23.3624 26.9577
C 14.7039 25.2353 4.96501
Co 13.3291 23.5933 4.68166
N 14.9642 22.8382 17.0921
N 12.9641 23.504 14.6594
N 18.5568 20.013 14.4394
N 17.0042 24.3869 13.1285
N 14.0438 18.4398 15.1103
N 15.6975 20.132 11.3008
C 15.4997 22.227 15.9851
C 16.7162 23.2123 13.7337
C 13.7862 22.4055 14.351
C 17.4075 20.6347 14.477
C 14.5183 19.7609 14.8243
C 15.7512 20.7656 12.499
Co 15.6549 21.5335 14.1559
N 20.2059 18.0579 22.8833
N 22.0374 17.6327 2.76052
N 20.7294 13.4411 22.4279
N 18.6457 14.1759 25.7885
N 24.7309 16.3743 23.7988
N 22.7553 12.6441 25.27
C 20.6425 17.0767 23.8004
C 19.8722 14.6931 25.2969
C 21.8059 16.529 26.2772
C 21.1627 14.6232 22.9801
C 23.3855 16.3224 24.2304
C 22.296 13.9653 25.0945
Co 21.4878 15.6679 24.6287
N 18.7154 7.83107 6.71798
N 16.5037 9.6218 9.85849
N 17.9814 3.31476 8.34688
N 15.3922 7.50019 6.99134
N 19.6066 6.06429 11.9925
N 16.3434 5.25233 12.2454
C 18.3278 7.15615 7.84098
C 15.9378 6.94617 8.04776
C 17.0439 8.34731 9.79371
C 17.6621 4.52953 8.86988
C 18.9224 6.48739 10.7883
C 16.4715 5.86079 11.0724
Co 17.4717 6.55559 9.40511
N 8.09289 6.72073 14.5071
N 13.1898 5.76842 13.9389
N 9.19284 11.5853 14.3753
N 10.5305 9.38998 11.1599
N 10.6278 8.16929 17.764
N 13.7685 10.1953 15.0237
C 9.13853 7.51598 14.301
C 10.6462 8.9655 12.5045
C 12.1576 6.66602 14.3482
C 9.82663 10.4076 14.5947
C 10.8547 8.26289 16.3761
C 12.5526 9.71649 14.4396
Co 10.8519 8.46398 14.4221
N 26.5928 26.5425 19.892
N 6.74569 26.6425 19.8692
N 26.9823 24.9593 24.8457
N 5.30157 4.61245 22.8109
N 3.41099 23.4185 20.6376
N 6.2649 24.4328 24.9999
C 2.97678 26.527 21.0992
C 4.72476 3.37105 22.6921
C 6.0228 26.4295 20.9599
C 3.59375 25.6726 23.9935
C 4.01341 24.2431 21.443
C 5.95074 25.3953 23.9756
Co 4.60676 25.9663 22.3682
N 10.9533 16.3764 19.6503
N 6.98165 14.9756 17.4838
N 8.76019 20.3515 21.5804
N 7.22335 15.6323 21.4108
N 9.48461 19.7737 17.0244
N 4.55317 18.6893 19.172
C 9.71651 17.1025 19.6378
C 7.36435 16.8457 20.9093
C 7.29157 16.0975 18.0459
C 8.20462 19.5152 20.6592
C 8.62732 19.0067 17.7927
C 5.91397 18.3316 19.1639
Co 7.90829 17.8821 19.2561
N 5.36719 24.6948 6.72737
N 26.5411 3.48221 7.186
N 3.38692 22.4669 2.98708
N 3.95608 2.7267 26.7348
N 25.4005 23.3119 7.57045
N 23.7938 26.2125 3.93225
C 4.30544 24.7148 5.89132
C 3.50314 26.2736 3.65918
C 26.5774 26.6525 6.22258
C 2.80093 23.4272 3.79249
C 25.7085 24.1322 6.56865
C 25.0387 25.7208 4.05994
Co 26.7428 25.1264 5.01957
N 3.24949 16.3997 5.74604
N 4.74325 12.6211 3.61182
N 22.9046 15.3177 4.04496
N 24.7339 10.8247 27.3297
N 26.7252 16.5995 26.7426
N 25.76 13.5585 25.1436
C 26.6522 15.5232 5.17661
C 25.1612 12.0771 3.43218
C 3.5696 12.9727 4.25377
C 24.1073 14.6359 4.32284
C 26.4838 15.5013 3.3037
C 25.7654 13.7415 26.5286
Co 25.8322 13.7449 4.38447
N 21.2974 20.5251 12.4162
N 22.632 22.9465 8.5781
N 25.9338 19.604 13.6364
N 24.4762 24.071 13.051
N 25.0905 18.6117 9.1673
N 3.02245 22.4434 10.4778
C 22.4686 20.822 11.7379
C 23.9605 22.9219 12.2569
C 23.5088 22.2854 9.4458
C 25.3713 20.2257 12.536
C 24.7042 19.6812 10.0203
C 26.1394 21.7823 10.6164
Co 24.2625 21.3226 11.1733
N 7.83532 6.50744 7.62131
N 3.14754 7.25948 7.8173
N 8.6611 11.0601 8.74941
N 6.35494 8.6349 11.8372
N 5.37438 9.61409 5.37044
N 3.92944 11.9393 9.11088
C 7.10924 7.49381 7.90655
C 6.33498 8.84525 10.4853
C 4.13811 8.10878 8.15227
C 7.4605 10.5279 8.78333
C 5.62124 9.59591 6.713
C 4.85554 10.9743 8.80438
Co 5.99254 9.28477 8.54718
N 20.5571 22.9738 18.8408
N 22.991 21.9286 21.1947
N 22.4979 20.6781 14.845
N 20.2374 18.6121 18.6464
N 25.0343 23.3638 18.2443
N 25.1867 18.8682 17.5629
C 21.5486 22.2068 18.4428
C 21.3897 19.3868 18.4493
C 23.2511 21.198 20.1071
C 22.398 20.4751 16.1821
C 24.259 22.3437 18.0407
C 24.0977 19.5827 18.0059
Co 22.8927 20.753 18.1688
N 8.71075 25.8764 16.7549
N 3.67351 24.7046 18.1821
N 8.71295 21.8467 14.9995
N 4.49454 24.2935 13.792
N 7.43693 23.8633 19.4018
N 4.35395 20.6371 17.0644
C 7.54528 25.0651 16.646
C 5.32394 23.8839 14.7668
C 4.59565 24.3669 17.4739
C 7.60805 22.2775 15.5184
C 6.99634 23.3012 18.2855
C 5.19072 21.6679 17.17
Co 6.2219 23.3674 16.537
N 6.13389 6.14357 3.15739
N 4.375 7.27804 23.8724
N 26.0952 6.52478 5.86121
N 25.6528 4.84258 25.2788
N 4.1505 10.1647 3.13301
N 24.5218 8.75068 25.3906
C 4.71225 6.26792 3.13829
C 26.5256 5.31397 26.2963
C 3.7272 7.3304 25.0539
C 26.5266 6.95049 4.6447
C 3.69692 8.98059 2.89388
C 25.5838 8.18137 25.9093
Co 27.1941 7.14661 26.8461
N 12.262 15.5484 16.5143
N 14.4222 16.0974 12.4718
N 8.09412 14.255 12.7941
N 11.9085 12.1915 12.5965
N 10.912 18.8348 13.575
N 10.8019 16.0513 9.73418
C 11.8914 15.6111 15.1676
C 11.7401 13.5743 12.7989
C 13.1221 15.9489 12.7434
C 9.23277 14.8693 13.139
C 10.8149 17.5584 13.0277
C 10.8144 15.7131 11.0351
Co 11.2895 15.5426 13.1086
N 20.5559 17.0493 7.74718
N 19.5409 15.3713 4.71261
N 22.8042 19.1342 7.56955
N 19.8326 19.8346 5.6385
N 24.1739 16.1604 7.33861
N 25.0631 18.8907 4.76211
C 20.9668 16.807 6.4836
C 20.8965 18.9384 5.10355
C 20.5019 16.2892 5.11795
C 22.4076 18.5956 6.45987
C 23.3112 16.657 6.36032
C 23.8976 18.2358 4.95749
Co 22.0836 17.2589 4.65204
N 21.3323 9.48749 16.8311
N 22.6824 12.869 19.7722
N 20.8672 6.81165 21.3109
N 18.8921 11.0286 19.6829
N 25.1192 9.3961 20.7042
N 21.826 10.4389 23.6434
C 21.8224 9.28436 18.1077
C 19.9675 10.2561 20.1011
C 22.5925 11.6205 20.0405
C 21.4715 7.98837 20.8306
C 23.8128 9.48368 20.3598
C 21.7308 10.3813 22.2678
Co 21.8621 9.75804 20.2276
N 14.1041 4.00886 15.6585
N 9.46334 4.81199 17.3267
N 14.8595 26.0528 19.9666
N 11.6614 23.9044 17.4559
N 11.7139 5.75378 19.661
N 9.60092 26.0943 20.2246
C 13.2736 3.63719 16.5901
C 11.9557 25.2054 17.4586
C 10.4711 4.17964 17.513
C 13.7799 26.6613 19.1762
C 11.9276 4.79862 18.7661
C 10.5849 26.5149 19.3809
Co 12.1312 2.90425 18.0924
N 19.7422 22.7409 15.4888
N 19.0748 25.704 17.5426
N 20.017 26.6281 12.1612
N 19.4296 4.16954 14.8889
N 14.8536 25.5352 16.2616
N 16.7573 4.56761 15.3386
C 19.0889 23.9441 15.2346
C 18.7845 3.01534 15.0835
C 18.6212 25.637 16.2282
C 19.1419 26.2337 13.1386
C 15.8361 25.5059 15.2902
C 17.0383 3.24652 14.7218
Co 17.723 25.6373 14.385
N 17.3381 9.87982 21.6671
N 14.6807 6.88271 22.975
N 19.7847 7.25884 18.7038
N 15.7492 9.2103 19.2373
N 18.9365 4.81131 23.0875
N 16.4441 4.05337 18.7848
C 17.3847 8.57754 21.4506
C 16.359 8.14573 19.8146
C 15.7325 6.68179 22.2451
C 18.7906 6.83812 19.6013
C 18.2938 5.55107 22.2483
C 16.7716 5.00278 19.7281
Co 17.1625 6.65327 20.8856
N 23.5664 9.44226 8.9792
N 21.6029 13.3567 7.24573
N 26.5977 12.6644 11.5425
N 23.1283 12.7231 12.7408
N 25.7255 13.0304 6.29739
N 24.079 16.0069 10.1942
C 23.7115 10.7066 9.34381
C 23.2218 12.7335 11.3366
C 22.4343 12.9207 8.22421
C 25.6564 12.6982 10.527
C 25.1388 12.8412 7.50032
C 24.2104 14.6712 9.76037
Co 24.1459 12.7673 9.39911
N 22.4619 11.993 16.9399
N 26.1756 11.8545 18.6748
N 22.16 16.2222 15.6265
N 26.0706 14.0328 14.475
N 23.2064 15.5158 20.4879
N 2.49089 16.9781 18.072
C 23.1085 13.2536 17.0479
C 25.2357 14.152 15.6021
C 25.6652 12.9936 18.0218
C 23.1408 15.744 16.5659
C 23.8325 15.0372 19.2946
C 25.8083 15.9956 17.7593
Co 24.4633 14.5652 17.4156
N 26.1227 15.9317 11.8988
N 5.05173 19.2562 11.0618
N 5.49181 13.8064 14.9411
N 3.31734 18.655 15.3908
N 5.85681 15.0202 10.2644
N 7.77164 17.7386 14.7323
C 3.10388 16.0722 12.2981
C 4.30966 17.9092 14.6993
C 4.87032 18.1136 11.6839
C 5.01834 15.0195 14.3707
C 5.46384 15.4897 11.39
C 6.6843 17.5127 13.9499
Co 4.97635 16.6463 13.0479
N 11.4507 17.3243 22.6586
N 16.5396 16.0945 24.4031
N 10.8549 20.3289 25.357
N 14.9232 21.2073 23.4269
N 11.8352 16.9103 3.1031
N 15.0576 20.5684 26.8453
C 12.3616 17.7343 23.5037
C 14.3036 20.1442 23.965
C 15.4532 16.8673 24.417
C 12.0178 19.6855 25.2329
C 12.6539 17.6637 26.5685
C 14.6913 19.6083 25.9017
Co 13.7066 18.2913 24.82
N 18.9538 11.7144 14.7884
N 16.7074 11.3385 17.8519
N 16.7511 17.1613 14.6037
N 19.7606 15.2228 17.4642
N 14.6468 13.1794 13.4599
N 14.8519 16.2667 17.5679
C 18.2206 12.8141 15.2237
C 18.4584 14.7533 17.255
C 16.7184 12.6128 17.304
C 16.9752 15.9054 14.9217
C 15.4521 13.4415 14.6569
C 15.6299 15.2857 16.9537
Co 16.8895 14.1483 15.9878
N 14.7189 13.6939 24.894
N 13.4738 16.0711 20.6008
N 13.8559 9.65565 21.7631
N 16.7049 12.7987 20.5701
N 10.3733 12.4655 22.5773
N 12.8826 13.1227 18.5966
C 14.3132 13.3562 23.6461
C 15.4098 12.9074 20.8256
C 13.7326 14.8746 21.1848
C 13.4872 10.948 21.8703
C 11.7256 12.7743 22.4015
C 13.1269 12.8439 19.9208
Co 13.6306 13.0286 21.7722
N 20.5786 10.844 26.595
N 16.111 13.5454 3.16496
N 18.7441 7.42794 25.505
N 18.6 12.1833 23.5768
N 17.0016 9.2412 5.08151
N 13.9196 10.0818 24.8473
C 19.2185 10.7219 26.4565
C 17.9006 11.5516 24.5785
C 16.2216 12.286 26.8875
C 18.2244 8.62493 25.5745
C 17.1725 9.55013 3.69645
C 15.1958 10.1002 25.3468
Co 17.1919 10.4623 26.0908
N 17.8743 24.8448 6.53573
N 22.7263 25.2195 7.23291
N 18.391 21.3721 3.82407
N 19.9353 21.5161 8.16284
N 21.4871 25.6609 27.3286
N 23.5763 23.0995 4.10957
C 19.0213 24.5396 5.81684
C 20.2534 22.1992 6.94652
C 21.7121 24.6681 6.56472
C 19.3062 22.2141 4.3308
C 21.13 24.6237 3.91139
C 22.2657 22.7887 4.56824
Co 20.5739 23.5378 5.45173
N 14.3336 14.1129 10.5274
N 15.4336 10.9677 6.91007
N 9.95364 12.8271 10.3256
N 13.8262 10.0802 11.6785
N 11.504 14.0328 6.3758
N 11.0679 8.73721 8.29759
C 13.9212 13.0789 9.70347
C 13.4678 10.638 10.4829
C 14.3476 11.3087 7.69332
C 11.1009 12.3291 9.92217
C 11.9768 13.1052 7.3243
C 11.7078 9.92186 8.5224
Co 12.7227 11.6952 8.83966
N 20.4212 18.3581 14.7002
N 19.6495 18.5479 9.70551
N 20.7338 13.4996 14.2307
N 23.2737 17.7721 12.9064
N 17.1796 15.6414 11.6908
N 20.0914 14.2341 9.07521
C 20.2411 17.4146 13.56
C 22.458 16.9277 12.197
C 20.1603 17.5958 10.5986
C 20.672 14.4988 13.2896
C 18.5281 15.6331 11.7305
C 20.5854 14.9055 10.2089
Co 20.4989 16.069 11.9447
N 26.3082 8.26959 17.4048
N 4.24064 6.8382 13.0633
N 3.7929 12.5461 16.5578
N 25.0168 10.9309 13.7609
N 6.75117 8.95253 15.2894
N 5.14146 11.4665 12.1336
C 26.9759 8.84116 16.4127
C 26.1529 10.4939 14.1325
C 3.80958 8.08483 13.6575
C 3.36544 11.3584 15.9681
C 5.46405 9.15343 15.2345
C 4.43065 10.8697 13.1839
Co 3.58307 9.76368 14.6878
N 3.22706 9.57335 20.6432
N 24.782 13.3999 22.3022
N 6.89732 13.1224 19.9906
N 3.43812 10.8738 24.3254
N 4.11536 14.1433 18.5486
N 3.63224 15.5258 23.3631
C 3.63349 10.9402 20.5812
C 3.63472 11.6365 23.1404
C 26.0463 13.0046 21.9601
C 5.81229 12.7416 20.5648
C 3.73777 13.6168 19.8142
C 3.82352 14.3372 22.5585
Co 3.84327 12.7406 21.4129
N 7.1121 21.0193 9.67045
N 3.6486 19.595 8.36697
N 10.1314 18.5242 6.39674
N 6.60326 22.1013 5.59242
N 7.58913 15.8965 7.90083
N 5.82057 17.8533 3.95634
C 6.97343 20.0653 8.73679
C 6.88792 20.854 6.18225
C 4.84812 19.4793 7.75859
C 8.76007 18.7754 6.64196
C 7.02425 17.1474 7.55334
C 6.39422 18.2917 5.16645
Co 6.73993 19.05 7.04577
580
Atoms. Timestep: 20000
Mn 19.5364 15.653 6.85843
Mn 4.33896 22.9997 25.6535
Mn 19.4775 22.8771 17.4053
Mn 20.0326 19.8446 6.9692
Fe 7.67338 6.32089 13.7525
Co 20.1897 5.08075 13.2597
Co 15.473 13.5749 12.7433
Co 15.279 26.5611 17.0576
Co 13.3387 24.9161 22.0419
Co 17.9216 5.23572 24.0697
Co 19.4495 22.6508 3.42461
Co 4.14999 14.7962 24.6724
Ni 17.1119 10.4422 20.4785
Ni 16.4806 4.42348 7.6228
Ni 5.77648 4.31727 8.58004
Ni 14.1102 17.5568 9.07768
Ni 12.7865 9.08253 25.2792
Ni 21.8146 11.6858 24.7905
Ni 24.0588 13.0687 19.8727
Ni 24.1069 19.6477 7.84553
Ni 11.0171 10.4343 9.35292
Ni 24.3975 24.8252 20.0062
Ni 10.954 26.1784 4.92402
Ni 11.8064 22.2149 13.6755
Ni 11.7897 24.0166 8.37366
Ni 6.86972 25.9926 4.0101
Ni 18.6813 11.1198 7.52032
Ni 5.60351 15.2775 5.24608
Ni 18.6855 20.7397 11.4954
Ni 22.9994 26.6043 5.74744
Ni 7.55352 25.632 18.6813
Ni 4.84068 14.4548 17.2745
Ni 16.5243 19.1454 14.6766
Ni 24.7202 8.39501 18.934
Ni 10.5229 8.46451 17.7703
Ni 24.3855 8.43053 8.80024
Ni 18.8671 6.57903 20.5337
Ni 13.5042 5.50803 12.8591
Ni 25.3473 25.5472 14.4259
Ni 23.0802 24.3086 9.94069
Ni 6.73761 9.82718 5.89457
Ni 26.0689 10.4452 12.568
Ni 23.6531 20.7051 24.2946
Zn 11.6863 17.0144 5.6783
Zn 10.0119 16.5924 22.8368
Zn 15.9719 16.4326 22.3057
Zn 26.2079 6.57796 23.2022
Zn 19.7052 16.5211 19.8261
Zn 15.1402 13.5607 4.00461
Zn 13.135 16.3665 18.4543
Zn 13.2944 21.3351 26.5369
Zn 23.402 15.661 12.7113
Zn 9.40653 14.8809 10.3474
Zn 19.3952 12.1176 13.9274
Zn 4.6265 20.2875 10.658
Zn 8.60666 19.66 15.0993
Zn 26.1243 10.4739 26.237
Zn 25.591 19.9807 17.2936
Zn 8.88712 11.655 21.3184
Zn 8.39423 13.2716 14.9086
N 10.3217 14.8272 6.12525
N 6.97238 14.7766 3.8801
N 12.1914 10.8579 25.9178
N 10.7047 16.021 25.0211
N 8.37613 10.4138 4.97923
N 8.43159 11.6753 23.5151
C 10.354 14.189 4.91207
C 9.99535 14.836 25.3487
C 7.91387 13.9211 3.36297
C 11.1813 11.8574 26.1186
C 8.92193 11.3572 4.08433
C 8.85605 12.2384 24.6028
Co 9.66365 13.0277 26.3972
N 8.90574 26.2148 4.03317
N 11.3239 22.7578 4.1429
N 10.864 22.1381 8.17739
N 7.11489 26.4406 6.82443
N 6.27811 23.7378 3.89265
N 11.2484 25.1517 6.51413
C 8.97119 25.2877 5.0221
C 7.8577 25.3662 6.2242
C 10.2742 23.2108 4.96326
C 9.94779 22.8982 7.53876
C 7.46647 23.9044 4.47616
C 10.1185 24.4178 6.29604
Co 8.5594 23.3057 6.14491
N 10.0494 4.48946 6.26063
N 11.4296 24.934 10.2574
N 10.9022 8.44834 8.47918
N 14.6485 5.10641 7.81892
N 7.96552 4.74234 9.55618
N 11.7648 5.98387 11.9743
C 10.7279 4.69794 7.34685
C 13.3014 4.85151 8.30829
C 11.4429 26.1619 9.57169
C 10.9819 7.19841 8.83936
C 9.38003 4.71932 9.52886
C 11.6035 5.21971 10.8718
Co 11.2612 4.97301 9.07827
N 25.0525 25.3109 10.6381
N 26.2055 4.28584 14.1798
N 23.8045 6.32954 8.23197
N 5.01148 5.74578 9.7268
N 22.2966 5.02299 12.6435
N 25.8901 8.42476 12.3331
C 24.7545 3.56348 10.8341
C 3.95582 5.49865 10.4834
C 25.8206 4.70366 12.8612
C 24.4209 6.15586 9.34924
C 23.4051 5.18378 11.8854
C 25.4715 7.29694 11.7494
Co 25.2188 5.46381 11.1524
N 20.9073 22.4499 25.2602
N 19.6147 4.21547 24.2117
N 24.959 22.7572 24.572
N 22.2516 25.4518 4.35834
N 22.6711 24.7475 21.0719
N 25.0741 4.87983 23.5102
C 21.5915 23.5743 24.7069
C 22.9112 25.534 26.2137
C 20.8603 3.5866 24.1864
C 24.244 23.9704 24.5374
C 22.8196 25.147 22.3002
C 24.2186 3.8468 23.9865
Co 22.8002 25.4559 24.2857
N 13.0605 19.8777 4.94884
N 13.1821 15.6842 4.19419
N 18.0688 20.35 4.51381
N 16.4505 17.7518 24.3384
N 15.4724 16.9196 7.66629
N 18.2057 15.6474 4.7846
C 13.9875 19.0671 4.54658
C 16.085 18.0146 25.6104
C 14.3068 16.3832 4.03623
C 16.9938 19.4987 4.97307
C 15.5094 17.575 6.45705
C 17.3711 16.6935 4.6789
Co 15.6886 17.9581 4.46172
N 23.7788 25.8441 15.6245
N 20.7729 24.4084 17.9584
N 23.2624 7.25104 18.11
N 24.3774 3.73289 20.3771
N 19.8587 4.9519 15.3731
N 19.5118 4.59526 20.1019
C 23.5469 3.51755 16.672
C 23.5195 3.83193 19.3829
C 21.4511 25.5907 17.9198
C 22.5241 6.06143 17.9671
C 20.7978 4.62783 16.2835
C 20.5424 4.81531 19.1792
Co 22.0423 4.31299 17.9715
N 13.9379 23.6273 23.8146
N 11.8033 3.43044 26.2545
N 17.4868 23.2511 26.4951
N 14.1832 22.4907 4.98367
N 16.4332 3.92344 24.334
N 16.0024 3.7964 5.85352
C 14.3289 23.7745 25.0164
C 14.4265 23.8186 4.68461
C 13.0672 26.0404 26.3399
C 16.5683 24.2359 26.3284
C 15.2808 26.5198 24.9801
C 15.4099 26.1725 4.95303
Co 14.7733 25.0662 26.4918
N 15.7814 19.6127 12.8323
N 11.6682 22.1812 11.6811
N 17.9317 21.6938 9.81649
N 16.0724 24.981 12.3647
N 14.4934 19.6015 8.81862
N 13.6191 24.5374 8.50296
C 15.3461 20.7275 12.0991
C 15.2467 23.937 11.8338
C 12.9477 22.2072 11.3478
C 16.6934 22.0676 10.1369
C 14.6723 20.8269 9.41511
C 14.2916 23.7637 9.29616
Co 14.8138 22.2846 10.7336
N 23.9873 18.9393 23.3848
N 21.3697 17.2916 26.0065
N 24.819 14.8596 20.9064
N 19.7513 16.7937 21.8434
N 25.4916 15.2988 24.8505
N 21.0524 13.2462 23.827
C 23.5874 17.719 23.0117
C 21.1079 16.3118 21.895
C 21.9253 16.7365 24.8479
C 23.7512 15.2035 21.7088
C 24.444 15.576 24.1898
C 21.9129 14.3378 23.5983
Co 22.7738 16.019 23.3168
N 19.9801 9.43751 7.93846
N 18.4356 10.6407 12.2456
N 17.7241 5.82741 7.57247
N 16.4884 10.8912 8.15001
N 18.6963 5.85647 12.3065
N 15.5842 5.85481 11.6027
C 19.0485 8.9805 8.86859
C 16.849 9.61216 8.50315
C 18.0038 9.5038 11.5614
C 17.6486 6.65117 8.66208
C 18.5525 6.74464 11.3318
C 16.4026 6.84534 11.2342
Co 17.6363 8.05685 9.9898
N 8.97516 8.0315 14.2652
N 13.3761 6.86832 14.3129
N 9.87253 12.9394 13.4844
N 12.5907 9.97366 10.4283
N 11.2722 10.4985 17.0862
N 14.6452 11.9868 13.7658
C 10.1035 8.7321 13.7751
C 12.1287 9.86697 11.7963
C 12.8005 8.17701 14.1574
C 10.5128 11.7236 13.5789
C 11.4464 10.0697 15.8073
C 13.6009 11.0761 13.7997
Co 11.7862 9.99945 13.7932
N 4.81843 5.56966 21.9849
N 7.42148 25.879 20.66
N 3.40273 25.1026 25.8528
N 7.52842 3.49817 25.3948
N 25.7213 24.5695 21.3717
N 5.1962 22.4546 23.9244
C 4.96789 4.34709 22.6388
C 6.49441 26.0933 24.6612
C 6.41269 25.7007 21.5461
C 4.0033 25.219 24.6437
C 3.53487 25.1414 22.2213
C 5.55986 23.7716 23.6663
Co 5.24562 25.6777 23.1601
N 11.6097 15.8966 20.1837
N 8.92545 15.0564 15.8205
N 7.71013 16.7848 22.2029
N 8.70046 12.7845 19.4838
N 8.70784 18.7459 17.3043
N 5.00117 15.9928 18.7804
C 10.3645 15.5626 19.7196
C 8.24868 14.0855 19.6638
C 8.35606 15.2454 17.1111
C 8.12571 16.4065 21.03
C 8.60223 17.7149 18.1479
C 6.43112 16.0125 18.6632
Co 8.47834 15.7992 19.0511
N 6.96043 22.933 7.472
N 5.48393 25.5747 9.54411
N 26.3505 22.4913 4.09706
N 5.0406 3.46978 4.43597
N 3.46722 21.5423 8.96115
N 24.2438 25.3424 6.84556
C 5.72954 23.4108 6.97457
C 4.72352 25.7716 5.49552
C 4.71948 25.2685 8.32133
C 3.58468 23.1253 5.17616
C 3.51299 22.706 7.96648
C 25.5735 25.1739 6.87685
Co 4.12864 24.2303 6.8102
N 5.00799 14.2537 6.95866
N 26.1236 10.8287 5.10006
N 23.7593 16.8177 4.02508
N 22.6451 13.0496 25.8198
N 4.5907 15.377 3.47242
N 3.61334 12.4869 25.3694
C 3.78962 14.1514 6.22666
C 23.6115 13.5836 3.5594
C 25.6599 12.1097 4.92563
C 24.5256 15.6003 4.39661
C 3.52068 14.8578 4.17386
C 26.2721 12.8993 26.7254
Co 25.1043 13.8847 5.09648
N 20.5307 21.0027 12.1862
N 23.3693 24.2914 12.453
N 23.8112 17.7408 13.7512
N 24.2113 21.2317 16.4639
N 23.773 20.5141 9.52659
N 4.12332 21.3246 12.4139
C 21.7393 21.1129 12.7983
C 24.0982 21.3043 15.0904
C 23.7012 22.9949 12.7666
C 23.9278 19.0089 13.2293
C 23.7174 21.031 10.7352
C 25.9359 21.0803 12.6441
Co 23.8752 21.0031 12.9224
N 7.16271 8.12025 6.91654
N 26.2304 8.2584 9.54452
N 9.28907 10.279 10.3509
N 6.46878 6.97786 12.5566
N 5.74012 11.3656 7.26684
N 5.07462 11.3112 12.1967
C 7.10074 8.49727 8.24713
C 6.27422 7.96778 11.6335
C 4.36169 8.55204 9.56903
C 7.99466 10.0557 10.3733
C 5.95169 10.453 8.41084
C 5.25337 10.1947 11.4791
Co 6.32907 9.20811 10.0646
N 18.8302 22.5909 19.3568
N 22.2766 20.5822 22.6684
N 20.6614 21.7673 16.0792
N 19.1626 18.1508 18.4234
N 23.8687 22.84 19.3707
N 24.5122 18.8362 18.8898
C 19.9885 21.8598 19.5639
C 20.2081 19.0085 18.8071
C 22.1192 20.653 21.3222
C 21.0801 21.1237 17.2094
C 22.881 21.9036 19.1877
C 23.1439 19.3171 18.6995
Co 21.5851 20.4941 19.1523
N 6.82936 26.1212 16.6815
N 26.0394 24.0366 19.1388
N 7.85382 21.8835 15.1068
N 26.6415 23.8874 14.5821
N 7.72475 23.5664 19.4687
N 4.67666 19.6797 17.6143
C 6.43114 24.7988 16.7783
C 4.33638 23.4672 15.5223
C 3.97436 23.7558 18.2978
C 6.89233 22.2656 15.9799
C 6.77014 23.3571 18.552
C 4.79762 21.1035 17.5618
Co 5.50763 23.0522 17.1128
N 5.0881 6.39042 24.9171
N 25.1518 8.66474 25.2231
N 4.81553 5.02679 7.00187
N 23.5675 5.10741 4.85722
N 5.36066 9.63926 4.34424
N 24.5626 8.63326 6.84595
C 4.2881 6.19498 26.0362
C 24.7406 5.79973 4.60749
C 25.4811 7.84642 26.1906
C 4.21373 5.98033 6.15491
C 4.75508 8.42168 4.54416
C 25.4288 7.87027 6.05063
Co 26.4822 6.92955 4.56898
N 11.8216 16.2033 16.8682
N 14.6025 19.5677 15.484
N 10.4113 15.4359 12.1368
N 15.585 15.4267 13.9135
N 10.5987 19.7454 14.7113
N 13.294 18.4459 10.7388
C 12.3573 16.613 15.7696
C 14.3191 15.8637 13.603
C 13.9995 18.52 14.6804
C 11.2568 16.246 12.8047
C 11.3469 18.5725 14.1575
C 13.0593 17.9836 12.0094
Co 12.755 17.311 13.8629
N 19.4509 17.8598 6.6336
N 21.4479 15.3266 6.62885
N 22.1406 19.7842 7.61267
N 20.5379 20.9021 5.00976
N 24.9122 18.2195 6.7825
N 24.447 20.2963 26.0465
C 20.536 18.0771 5.81005
C 21.3378 19.7467 4.95336
C 21.6099 16.5379 5.77963
C 22.3324 19.1924 6.3981
C 23.6942 18.269 6.15878
C 23.6346 19.4568 3.47503
Co 22.3579 17.9771 4.56412
N 19.6421 7.42716 18.9506
N 23.331 11.1677 19.7094
N 19.1511 6.99683 22.6926
N 19.0561 11.4414 20.9383
N 23.5832 6.31218 21.3006
N 22.851 10.0304 24.233
C 20.3976 8.20767 19.8584
C 20.0249 10.4895 21.2623
C 22.5542 10.2894 20.148
C 20.2983 7.79498 22.0918
C 22.7123 7.33451 21.2829
C 22.3452 9.8437 22.9833
Co 21.4874 8.95222 21.2703
N 13.2574 3.66908 13.4648
N 7.95813 4.32009 14.3293
N 13.5608 25.8044 17.7013
N 10.5702 23.625 14.2613
N 10.3081 6.48235 17.2044
N 9.61302 25.3727 18.8116
C 12.0188 3.61859 14.2028
C 10.7856 24.6891 14.9938
C 9.2562 3.96427 14.6148
C 12.5739 26.1476 16.819
C 10.701 5.25315 16.6049
C 10.025 25.9961 17.556
Co 10.8616 3.47367 15.8361
N 17.6322 21.389 13.0833
N 17.6413 22.3146 16.8068
N 19.3779 25.9246 13.8012
N 16.2673 24.979 17.6256
N 13.7087 22.3982 14.4685
N 15.1784 4.2864 15.2309
C 17.2775 22.6144 13.6171
C 16.3755 24.9972 16.3535
C 17.2495 23.1976 15.7857
C 18.2162 25.3865 14.2114
C 14.761 23.1903 14.7406
C 15.5953 26.1089 15.0087
Co 16.4684 24.2649 14.3555
N 17.2557 5.48221 22.2512
N 13.1468 8.00549 23.4687
N 16.1818 4.74936 18.3709
N 17.2285 8.2669 19.8593
N 12.7206 3.83404 22.0158
N 12.2352 8.29111 18.7777
C 16.0162 5.72017 21.6956
C 16.0479 7.5575 20.1338
C 13.9393 7.44802 22.412
C 15.2439 5.2864 19.1742
C 13.3544 4.83304 21.2907
C 13.1558 7.60273 19.5782
Co 14.559 6.42304 20.7298
N 22.4072 8.4569 9.87262
N 19.3033 12.5348 8.82201
N 25.5838 10.638 10.6234
N 20.8755 10.8706 12.6965
N 23.9191 12.9387 6.81756
N 23.1268 15.1382 10.6408
C 22.5258 9.79199 9.40522
C 21.4921 11.1847 11.5312
C 20.7154 12.1829 8.76697
C 24.3389 11.0798 10.1891
C 23.2062 12.3079 7.82183
C 22.6095 13.8058 10.2028
Co 22.4853 11.7657 9.74284
N 24.3896 11.2145 12.9398
N 24.681 10.0341 17.7201
N 22.4585 15.4889 14.5401
N 3.33727 14.2232 15.9744
N 20.234 11.5103 16.2039
N 22.523 13.6535 19.0446
C 23.9354 11.6719 14.0622
C 25.4071 13.5057 15.9061
C 24.0437 10.963 17.0028
C 22.8954 14.2527 14.853
C 21.339 12.0731 15.6676
C 22.9969 13.427 17.7773
Co 23.4233 12.5839 15.9428
N 25.3455 14.7943 12.6311
N 3.64119 18.3455 10.9679
N 6.13535 14.9438 15.858
N 26.3002 18.2725 15.6753
N 7.51912 15.6587 11.3705
N 7.98055 18.6304 13.0686
C 26.4627 15.689 12.935
C 4.05764 17.8057 14.7697
C 4.33122 17.8182 11.98
C 5.70638 15.5066 14.7644
C 6.31787 15.6453 12.1134
C 6.94329 17.9167 13.4362
Co 5.04075 16.7272 13.3792
N 10.1235 19.1784 22.4439
N 12.2759 18.6302 18.7048
N 14.3151 20.2598 24.9638
N 13.5389 23.3585 20.7072
N 13.517 16.8394 22.4722
N 16.2947 18.7423 21.1159
C 11.3198 19.8032 22.1174
C 13.4775 21.9261 21.0597
C 12.7741 19.3617 19.69
C 13.7733 20.339 23.6814
C 13.3461 18.1288 22.2029
C 15.1244 19.3467 21.2582
Co 13.3859 20.0076 21.7047
N 20.3661 15.3779 18.1656
N 17.2386 11.6395 18.4022
N 16.4705 17.8335 16.286
N 17.7836 16.0746 20.6017
N 17.1563 12.8141 14.9675
N 13.6842 14.5753 17.9525
C 19.1562 15.0525 17.7776
C 17.1938 15.6162 19.4526
C 17.2473 13.0708 18.4399
C 17.1605 16.6222 16.7122
C 17.3166 13.8712 15.9415
C 15.0592 14.7898 17.7889
Co 17.2784 14.8539 17.6817
N 14.2674 13.6689 24.8018
N 14.3802 15.3287 20.5955
N 11.4062 10.1444 23.3778
N 16.0008 11.7482 21.462
N 9.97773 14.3045 22.359
N 10.7917 11.0682 19.8068
C 13.7339 13.3814 23.6617
C 14.7388 11.9024 21.5549
C 13.658 14.336 21.2499
C 12.1582 11.1966 22.9439
C 11.2898 13.582 22.3325
C 11.9265 11.5387 20.5424
Co 12.9809 12.5886 21.9518
N 20.7366 10.5336 25.8138
N 16.7136 12.8254 25.6218
N 18.053 6.21952 25.9097
N 16.8765 9.52596 22.2662
N 18.3232 10.3043 5.74886
N 14.5233 8.71422 26.4626
C 19.4224 10.3063 25.4054
C 17.2662 9.7798 23.5515
C 17.0603 11.5265 25.6475
C 17.9416 7.52014 25.6519
C 17.6121 10.0152 4.56845
C 15.5836 9.13563 25.8792
Co 17.5053 9.59693 25.7183
N 17.1345 25.607 8.2764
N 21.0376 24.523 10.7431
N 19.8624 24.468 4.20802
N 18.8068 21.2867 7.27885
N 21.3801 4.17181 7.27362
N 23.1041 23.0498 8.18944
C 18.3489 25.201 7.76406
C 19.2532 22.5875 7.53018
C 20.4897 24.3981 9.56034
C 19.7979 24.2753 5.52871
C 20.7316 26.117 7.35108
C 21.8019 23.476 7.83543
Co 20.0167 24.3776 7.55333
N 13.1173 16.1958 8.26439
N 16.2788 13.6865 5.83738
N 10.8163 12.4109 8.71962
N 14.9431 12.9109 10.973
N 13.1401 12.9198 4.57538
N 13.6865 9.35178 7.97295
C 13.5105 14.8323 8.12004
C 14.4255 12.7275 9.72416
C 15.3361 13.3002 6.68452
C 12.1106 12.4891 8.47767
C 13.3579 12.91 5.84639
C 13.6998 10.7988 7.71605
Co 13.8325 12.8323 7.77796
N 18.3093 19.008 13.6653
N 19.6173 19.4587 9.76316
N 17.5012 13.8103 12.5677
N 21.6239 16.7577 11.8772
N 15.1012 16.4347 10.2855
N 18.829 15.0061 8.43682
C 18.3842 17.7086 12.8805
C 20.3925 16.6238 11.3295
C 19.0241 18.43 10.4653
C 17.9828 14.9535 12.0708
C 16.5005 16.7207 10.5284
C 18.7594 15.8136 9.47302
Co 18.4133 16.7468 11.1644
N 3.51142 7.82045 18.4219
N 6.25141 6.6917 15.0736
N 5.79215 12.7524 17.61
N 26.4903 10.6533 14.7175
N 8.47627 8.75875 18.0806
N 7.19193 11.5711 14.3486
C 4.40485 8.76219 17.9815
C 4.27589 10.1833 15.5214
C 5.88743 7.76438 15.7025
C 5.62084 11.4492 17.1625
C 7.20352 9.2483 17.7842
C 6.90032 10.6633 15.1903
Co 5.62784 9.68227 16.6523
N 25.7887 8.58914 20.6481
N 24.233 12.6037 22.5934
N 7.13468 10.3049 21.3986
N 4.47326 9.91882 24.6762
N 26.5401 13.1141 18.814
N 4.94707 14.507 22.8294
C 26.3858 9.7343 21.1582
C 4.32851 10.5348 23.4695
C 25.3432 12.3066 22.1092
C 5.89274 10.8385 21.6616
C 3.81678 12.3845 19.8316
C 4.52824 13.3491 22.2428
Co 4.07331 11.5141 21.692
N 10.9953 18.5891 7.69028
N 6.37004 19.5927 9.4748
N 9.74513 17.5979 4.13058
N 7.82992 21.4648 5.40671
N 8.64725 15.4034 8.3783
N 5.08539 17.092 5.58879
C 9.64793 18.9412 7.54102
C 7.92412 20.2527 5.77414
C 6.85071 19.0051 8.23365
C 8.86248 17.596 5.21348
C 8.39214 16.5971 7.63648